
; GENERATED BY LigParGen Server (Jorgensen Lab @ Yale University), charge scaled by 0.8
; validated with viscosity and conductivity calculations (https://doi.org/10.1021/acsaem.2c03712)
; Anton S. Perera

[ atomtypes ]


[ moleculetype ]
; Name               nrexcl
TBA                   3
[ atoms ]
;   nr       type  resnr residue  atom   cgnr     charge       mass  
     2   opls_800      1    TBA   N00      1     0.61
     2   opls_801      1    TBA   C01      1    -0.29      12.0110 
     3   opls_802      1    TBA   C02      1    -0.30      12.0110 
     4   opls_803      1    TBA   C03      1    -0.30      12.0110 
     5   opls_804      1    TBA   C04      1    -0.29      12.0110 
     6   opls_805      1    TBA   C05      1    -0.05      12.0110 
     7   opls_806      1    TBA   C06      1    -0.05      12.0110 
     8   opls_807      1    TBA   C07      1    -0.05      12.0110 
     9   opls_808      1    TBA   C08      1    -0.05      12.0110 
    10   opls_809      1    TBA   C09      1     0.16      12.0110 
    11   opls_810      1    TBA   C0A      1     0.15      12.0110 
    12   opls_811      1    TBA   C0B      1     0.15      12.0110 
    13   opls_812      1    TBA   C0C      1     0.16      12.0110 
    14   opls_813      1    TBA   C0D      1    -0.32      12.0110 
    15   opls_814      1    TBA   C0E      1    -0.32      12.0110 
    16   opls_815      1    TBA   C0F      1    -0.32      12.0110 
    17   opls_816      1    TBA   C0G      1    -0.33      12.0110 
    18   opls_817      1    TBA   H0H      1     0.09       1.0080 
    19   opls_818      1    TBA   H0I      1     0.12       1.0080 
    20   opls_819      1    TBA   H0J      1     0.12       1.0080 
    21   opls_820      1    TBA   H0K      1     0.09       1.0080 
    22   opls_821      1    TBA   H0M      1     0.12       1.0080 
    23   opls_822      1    TBA   H0N      1     0.09       1.0080 
    24   opls_823      1    TBA   H0O      1     0.09       1.0080 
    25   opls_824      1    TBA   H0P      1     0.12       1.0080 
    26   opls_825      1    TBA   H0Q      1     0.04       1.0080 
    27   opls_826      1    TBA   H0R      1     0.06       1.0080 
    28   opls_827      1    TBA   H0S      1     0.06       1.0080 
    29   opls_828      1    TBA   H0T      1     0.04       1.0080 
    30   opls_829      1    TBA   H0U      1     0.06       1.0080 
    31   opls_830      1    TBA   H0V      1     0.04       1.0080 
    32   opls_831      1    TBA   H0W      1     0.04       1.0080 
    33   opls_832      1    TBA   H0X      2     0.06       1.0080 
    34   opls_833      1    TBA   H0Y      2     0.00       1.0080 
    35   opls_834      1    TBA   H0Z      2     0.00       1.0080 
    36   opls_835      1    TBA   H10      2     0.01       1.0080 
    37   opls_836      1    TBA   H11      2     0.01       1.0080 
    38   opls_837      1    TBA   H12      2     0.01       1.0080 
    39   opls_838      1    TBA   H13      2     0.01       1.0080 
    40   opls_839      1    TBA   H14      2     0.00       1.0080 
    41   opls_840      1    TBA   H15      2     0.00       1.0080 
    42   opls_841      1    TBA   H16      2     0.08       1.0080 
    43   opls_842      1    TBA   H17      2     0.08       1.0080 
    44   opls_843      1    TBA   H18      2     0.08       1.0080 
    45   opls_844      1    TBA   H19      2     0.08       1.0080 
    46   opls_845      1    TBA   H1A      2     0.08       1.0080 
    47   opls_846      1    TBA   H1B      2     0.08       1.0080 
    48   opls_847      1    TBA   H1C      2     0.08       1.0080 
    49   opls_848      1    TBA   H1D      2     0.08       1.0080 
    50   opls_849      1    TBA   H1E      2     0.08       1.0080 
    51   opls_850      1    TBA   H1F      2     0.08       1.0080 
    52   opls_851      1    TBA   H1G      2     0.08       1.0080 
    53   opls_852      1    TBA   H1H      2     0.08       1.0080 
[ bonds ]
    2     2     1      0.1471
    3     2    1      0.1471 307105.600
    4    2     1      0.1471 307105.600
    5     2     1      0.1471 307105.600
    6     2     1      0.1529 224262.400
    7     3     1      0.1529 224262.400
    8     4     1      0.1529 224262.400
    9     5     1      0.1529 224262.400
   10     6     1      0.1529 224262.400
   11     7     1      0.1529 224262.400
   12     8     1      0.1529 224262.400
   13     9     1      0.1529 224262.400
   14    10     1      0.1529 224262.400
   15    11     1      0.1529 224262.400
   16    12     1      0.1529 224262.400
   17    13     1      0.1529 224262.400
   18     2     1      0.1090 284512.000
   19     2     1      0.1090 284512.000
   20     3     1      0.1090 284512.000
   21     3     1      0.1090 284512.000
   22     4     1      0.1090 284512.000
   23     4     1      0.1090 284512.000
   24     5     1      0.1090 284512.000
   25     5     1      0.1090 284512.000
   26     6     1      0.1090 284512.000
   27     6     1      0.1090 284512.000
   28     7     1      0.1090 284512.000
   29     7     1      0.1090 284512.000
   30     8     1      0.1090 284512.000
   31     8     1      0.1090 284512.000
   32     9     1      0.1090 284512.000
   33     9     1      0.1090 284512.000
   34    10     1      0.1090 284512.000
   35    10     1      0.1090 284512.000
   36    11     1      0.1090 284512.000
   37    11     1      0.1090 284512.000
   38    12     1      0.1090 284512.000
   39    12     1      0.1090 284512.000
   40    13     1      0.1090 284512.000
   41    13     1      0.1090 284512.000
   42    14     1      0.1090 284512.000
   43    14     1      0.1090 284512.000
   44    14     1      0.1090 284512.000
   45    15     1      0.1090 284512.000
   46    15     1      0.1090 284512.000
   47    15     1      0.1090 284512.000
   48    16     1      0.1090 284512.000
   49    16     1      0.1090 284512.000
   50    16     1      0.1090 284512.000
   51    17     1      0.1090 284512.000
   52    17     1      0.1090 284512.000
   53    17     1      0.1090 284512.000

[ angles ]
;  ai    aj    ak funct            c0            c1            c2            c3 
    2     1     3     1    113.000    418.400
    2     1     4     1    113.000    418.400
    2     1     5     1    113.000    418.400
    1     2     6     1    111.200    669.440
    1     3     7     1    111.200    669.440
    1     4     8     1    111.200    669.440
    1     5     9     1    111.200    669.440
    2     6    10     1    112.700    488.273
    3     7    11     1    112.700    488.273
    4     8    12     1    112.700    488.273
    5     9    13     1    112.700    488.273
    6    10    14     1    112.700    488.273
    7    11    15     1    112.700    488.273
    8    12    16     1    112.700    488.273
    9    13    17     1    112.700    488.273
    1     2    18     1    109.500    292.880
    1     2    19     1    109.500    292.880
    1     3    20     1    109.500    292.880
    1     3    21     1    109.500    292.880
    1     4    22     1    109.500    292.880
    1     4    23     1    109.500    292.880
    1     5    24     1    109.500    292.880
    1     5    25     1    109.500    292.880
    2     6    26     1    110.700    313.800
    2     6    27     1    110.700    313.800
    3     7    28     1    110.700    313.800
    3     7    29     1    110.700    313.800
    4     8    30     1    110.700    313.800
    4     8    31     1    110.700    313.800
    5     9    32     1    110.700    313.800
    5     9    33     1    110.700    313.800
    6    10    34     1    110.700    313.800
    6    10    35     1    110.700    313.800
    7    11    36     1    110.700    313.800
    7    11    37     1    110.700    313.800
    8    12    38     1    110.700    313.800
    8    12    39     1    110.700    313.800
    9    13    40     1    110.700    313.800
    9    13    41     1    110.700    313.800
   10    14    42     1    110.700    313.800
   10    14    43     1    110.700    313.800
   10    14    44     1    110.700    313.800
   11    15    45     1    110.700    313.800
   11    15    46     1    110.700    313.800
   11    15    47     1    110.700    313.800
   12    16    48     1    110.700    313.800
   12    16    49     1    110.700    313.800
   12    16    50     1    110.700    313.800
   13    17    51     1    110.700    313.800
   13    17    52     1    110.700    313.800
   13    17    53     1    110.700    313.800
   14    10    35     1    110.700    313.800
    6     2    19     1    110.700    313.800
    3     1     4     1    113.000    418.400
    4     1     5     1    113.000    418.400
   18     2    19     1    107.800    276.144
    7     3    20     1    110.700    313.800
    9     5    24     1    110.700    313.800
   11     7    28     1    110.700    313.800
   30     8    31     1    107.800    276.144
   51    17    53     1    107.800    276.144
   34    10    35     1    107.800    276.144
    8     4    23     1    110.700    313.800
    7     3    21     1    110.700    313.800
   45    15    46     1    107.800    276.144
   38    12    39     1    107.800    276.144
   10     6    26     1    110.700    313.800
   11     7    29     1    110.700    313.800
   42    14    44     1    107.800    276.144
   24     5    25     1    107.800    276.144
   28     7    29     1    107.800    276.144
   48    16    49     1    107.800    276.144
   45    15    47     1    107.800    276.144
   36    11    37     1    107.800    276.144
   40    13    41     1    107.800    276.144
   12     8    30     1    110.700    313.800
   43    14    44     1    107.800    276.144
   46    15    47     1    107.800    276.144
   22     4    23     1    107.800    276.144
   32     9    33     1    107.800    276.144
   17    13    41     1    110.700    313.800
   48    16    50     1    107.800    276.144
   51    17    52     1    107.800    276.144
    3     1     5     1    113.000    418.400
   14    10    34     1    110.700    313.800
   17    13    40     1    110.700    313.800
   42    14    43     1    107.800    276.144
   49    16    50     1    107.800    276.144
   12     8    31     1    110.700    313.800
   13     9    32     1    110.700    313.800
   15    11    37     1    110.700    313.800
   52    17    53     1    107.800    276.144
   15    11    36     1    110.700    313.800
    9     5    25     1    110.700    313.800
   26     6    27     1    107.800    276.144
    6     2    18     1    110.700    313.800
    8     4    22     1    110.700    313.800
   16    12    38     1    110.700    313.800
   16    12    39     1    110.700    313.800
   13     9    33     1    110.700    313.800
   10     6    27     1    110.700    313.800
   20     3    21     1    107.800    276.144

[ dihedrals ]
; IMPROPER DIHEDRAL ANGLES 
;  ai    aj    ak    al funct            c0            c1            c2            c3            c4            c5

[ dihedrals ]
; PROPER DIHEDRAL ANGLES
;  ai    aj    ak    al funct            c0            c1            c2            c3            c4            c5
   17   13    9    5        3       2.301  -1.464   0.837  -1.674  -0.000   0.000
   16   12    8    4        3       2.301  -1.464   0.837  -1.674  -0.000   0.000
   14   10    6    2        3       2.301  -1.464   0.837  -1.674  -0.000   0.000
   15   11    7    3        3       2.301  -1.464   0.837  -1.674  -0.000   0.000
   13    9    5    1        3       5.772  -2.671   0.958  -4.058  -0.000   0.000
   10    6    2    1        3       5.772  -2.671   0.958  -4.058  -0.000   0.000
   11    7    3    1        3       5.772  -2.671   0.958  -4.058  -0.000   0.000
   12    8    4    1        3       5.772  -2.671   0.958  -4.058  -0.000   0.000
    9    5    1    3        3       3.042  -1.351   0.519  -2.209  -0.000   0.000
    8    4    1    5        3       3.042  -1.351   0.519  -2.209  -0.000   0.000
    7    3    1    5        3       3.042  -1.351   0.519  -2.209  -0.000   0.000
    8    4    1    3        3       3.042  -1.351   0.519  -2.209  -0.000   0.000
    6    2    1    4        3       3.042  -1.351   0.519  -2.209  -0.000   0.000
    9    5    1    2        3       3.042  -1.351   0.519  -2.209  -0.000   0.000
    8    4    1    2        3       3.042  -1.351   0.519  -2.209  -0.000   0.000
    7    3    1    2        3       3.042  -1.351   0.519  -2.209  -0.000   0.000
    6    2    1    3        3       3.042  -1.351   0.519  -2.209  -0.000   0.000
    9    5    1    4        3       3.042  -1.351   0.519  -2.209  -0.000   0.000
    7    3    1    4        3       3.042  -1.351   0.519  -2.209  -0.000   0.000
    6    2    1    5        3       3.042  -1.351   0.519  -2.209  -0.000   0.000
   43   14   10    6        3       0.628   1.883   0.000  -2.510  -0.000   0.000
   29    7   11   15        3       0.628   1.883   0.000  -2.510  -0.000   0.000
   39   12    8    4        3       0.628   1.883   0.000  -2.510  -0.000   0.000
   19    2    6   10        3       0.628   1.883   0.000  -2.510  -0.000   0.000
   26    6   10   14        3       0.628   1.883   0.000  -2.510  -0.000   0.000
   25    5    9   13        3       0.628   1.883   0.000  -2.510  -0.000   0.000
   40   13    9    5        3       0.628   1.883   0.000  -2.510  -0.000   0.000
   27    6   10   14        3       0.628   1.883   0.000  -2.510  -0.000   0.000
   31    8   12   16        3       0.628   1.883   0.000  -2.510  -0.000   0.000
   24    5    9   13        3       0.628   1.883   0.000  -2.510  -0.000   0.000
   46   15   11    7        3       0.628   1.883   0.000  -2.510  -0.000   0.000
   23    4    8   12        3       0.628   1.883   0.000  -2.510  -0.000   0.000
   32    9   13   17        3       0.628   1.883   0.000  -2.510  -0.000   0.000
   21    3    7   11        3       0.628   1.883   0.000  -2.510  -0.000   0.000
   37   11    7    3        3       0.628   1.883   0.000  -2.510  -0.000   0.000
   52   17   13    9        3       0.628   1.883   0.000  -2.510  -0.000   0.000
   28    7   11   15        3       0.628   1.883   0.000  -2.510  -0.000   0.000
   47   15   11    7        3       0.628   1.883   0.000  -2.510  -0.000   0.000
   34   10    6    2        3       0.628   1.883   0.000  -2.510  -0.000   0.000
   38   12    8    4        3       0.628   1.883   0.000  -2.510  -0.000   0.000
   18    2    6   10        3       0.628   1.883   0.000  -2.510  -0.000   0.000
   20    3    7   11        3       0.628   1.883   0.000  -2.510  -0.000   0.000
   30    8   12   16        3       0.628   1.883   0.000  -2.510  -0.000   0.000
   53   17   13    9        3       0.628   1.883   0.000  -2.510  -0.000   0.000
   22    4    8   12        3       0.628   1.883   0.000  -2.510  -0.000   0.000
   33    9   13   17        3       0.628   1.883   0.000  -2.510  -0.000   0.000
   35   10    6    2        3       0.628   1.883   0.000  -2.510  -0.000   0.000
   36   11    7    3        3       0.628   1.883   0.000  -2.510  -0.000   0.000
   42   14   10    6        3       0.628   1.883   0.000  -2.510  -0.000   0.000
   50   16   12    8        3       0.628   1.883   0.000  -2.510  -0.000   0.000
   45   15   11    7        3       0.628   1.883   0.000  -2.510  -0.000   0.000
   49   16   12    8        3       0.628   1.883   0.000  -2.510  -0.000   0.000
   48   16   12    8        3       0.628   1.883   0.000  -2.510  -0.000   0.000
   44   14   10    6        3       0.628   1.883   0.000  -2.510  -0.000   0.000
   51   17   13    9        3       0.628   1.883   0.000  -2.510  -0.000   0.000
   41   13    9    5        3       0.628   1.883   0.000  -2.510  -0.000   0.000
   42   14   10   35        3       0.628   1.883   0.000  -2.510  -0.000   0.000
   43   14   10   34        3       0.628   1.883   0.000  -2.510  -0.000   0.000
   40   13    9   33        3       0.628   1.883   0.000  -2.510  -0.000   0.000
   37   11    7   29        3       0.628   1.883   0.000  -2.510  -0.000   0.000
   38   12    8   30        3       0.628   1.883   0.000  -2.510  -0.000   0.000
   29    7    3   20        3       0.628   1.883   0.000  -2.510  -0.000   0.000
   51   17   13   41        3       0.628   1.883   0.000  -2.510  -0.000   0.000
   34   10    6   27        3       0.628   1.883   0.000  -2.510  -0.000   0.000
   35   10    6   26        3       0.628   1.883   0.000  -2.510  -0.000   0.000
   50   16   12   39        3       0.628   1.883   0.000  -2.510  -0.000   0.000
   32    9    5   24        3       0.628   1.883   0.000  -2.510  -0.000   0.000
   42   14   10   34        3       0.628   1.883   0.000  -2.510  -0.000   0.000
   47   15   11   36        3       0.628   1.883   0.000  -2.510  -0.000   0.000
   44   14   10   35        3       0.628   1.883   0.000  -2.510  -0.000   0.000
   28    7    3   21        3       0.628   1.883   0.000  -2.510  -0.000   0.000
   34   10    6   26        3       0.628   1.883   0.000  -2.510  -0.000   0.000
   31    8    4   22        3       0.628   1.883   0.000  -2.510  -0.000   0.000
   53   17   13   41        3       0.628   1.883   0.000  -2.510  -0.000   0.000
   45   15   11   37        3       0.628   1.883   0.000  -2.510  -0.000   0.000
   31    8    4   23        3       0.628   1.883   0.000  -2.510  -0.000   0.000
   32    9    5   25        3       0.628   1.883   0.000  -2.510  -0.000   0.000
   33    9    5   24        3       0.628   1.883   0.000  -2.510  -0.000   0.000
   38   12    8   31        3       0.628   1.883   0.000  -2.510  -0.000   0.000
   41   13    9   32        3       0.628   1.883   0.000  -2.510  -0.000   0.000
   26    6    2   18        3       0.628   1.883   0.000  -2.510  -0.000   0.000
   51   17   13   40        3       0.628   1.883   0.000  -2.510  -0.000   0.000
   29    7    3   21        3       0.628   1.883   0.000  -2.510  -0.000   0.000
   52   17   13   40        3       0.628   1.883   0.000  -2.510  -0.000   0.000
   47   15   11   37        3       0.628   1.883   0.000  -2.510  -0.000   0.000
   28    7    3   20        3       0.628   1.883   0.000  -2.510  -0.000   0.000
   46   15   11   37        3       0.628   1.883   0.000  -2.510  -0.000   0.000
   49   16   12   39        3       0.628   1.883   0.000  -2.510  -0.000   0.000
   30    8    4   22        3       0.628   1.883   0.000  -2.510  -0.000   0.000
   41   13    9   33        3       0.628   1.883   0.000  -2.510  -0.000   0.000
   30    8    4   23        3       0.628   1.883   0.000  -2.510  -0.000   0.000
   46   15   11   36        3       0.628   1.883   0.000  -2.510  -0.000   0.000
   44   14   10   34        3       0.628   1.883   0.000  -2.510  -0.000   0.000
   48   16   12   39        3       0.628   1.883   0.000  -2.510  -0.000   0.000
   35   10    6   27        3       0.628   1.883   0.000  -2.510  -0.000   0.000
   48   16   12   38        3       0.628   1.883   0.000  -2.510  -0.000   0.000
   45   15   11   36        3       0.628   1.883   0.000  -2.510  -0.000   0.000
   39   12    8   30        3       0.628   1.883   0.000  -2.510  -0.000   0.000
   50   16   12   38        3       0.628   1.883   0.000  -2.510  -0.000   0.000
   27    6    2   18        3       0.628   1.883   0.000  -2.510  -0.000   0.000
   39   12    8   31        3       0.628   1.883   0.000  -2.510  -0.000   0.000
   27    6    2   19        3       0.628   1.883   0.000  -2.510  -0.000   0.000
   40   13    9   32        3       0.628   1.883   0.000  -2.510  -0.000   0.000
   52   17   13   41        3       0.628   1.883   0.000  -2.510  -0.000   0.000
   36   11    7   29        3       0.628   1.883   0.000  -2.510  -0.000   0.000
   26    6    2   19        3       0.628   1.883   0.000  -2.510  -0.000   0.000
   37   11    7   28        3       0.628   1.883   0.000  -2.510  -0.000   0.000
   33    9    5   25        3       0.628   1.883   0.000  -2.510  -0.000   0.000
   53   17   13   40        3       0.628   1.883   0.000  -2.510  -0.000   0.000
   49   16   12   38        3       0.628   1.883   0.000  -2.510  -0.000   0.000
   43   14   10   35        3       0.628   1.883   0.000  -2.510  -0.000   0.000
   36   11    7   28        3       0.628   1.883   0.000  -2.510  -0.000   0.000
   27    6    2    1        3       0.803   2.410   0.000  -3.213  -0.000   0.000
   32    9    5    1        3       0.803   2.410   0.000  -3.213  -0.000   0.000
   33    9    5    1        3       0.803   2.410   0.000  -3.213  -0.000   0.000
   28    7    3    1        3       0.803   2.410   0.000  -3.213  -0.000   0.000
   29    7    3    1        3       0.803   2.410   0.000  -3.213  -0.000   0.000
   30    8    4    1        3       0.803   2.410   0.000  -3.213  -0.000   0.000
   31    8    4    1        3       0.803   2.410   0.000  -3.213  -0.000   0.000
   26    6    2    1        3       0.803   2.410   0.000  -3.213  -0.000   0.000
   24    5    1    2        3       0.632   1.895   0.000  -2.527  -0.000   0.000
   25    5    1    3        3       0.632   1.895   0.000  -2.527  -0.000   0.000
   20    3    1    4        3       0.632   1.895   0.000  -2.527  -0.000   0.000
   24    5    1    4        3       0.632   1.895   0.000  -2.527  -0.000   0.000
   18    2    1    3        3       0.632   1.895   0.000  -2.527  -0.000   0.000
   24    5    1    3        3       0.632   1.895   0.000  -2.527  -0.000   0.000
   19    2    1    4        3       0.632   1.895   0.000  -2.527  -0.000   0.000
   25    5    1    2        3       0.632   1.895   0.000  -2.527  -0.000   0.000
   19    2    1    5        3       0.632   1.895   0.000  -2.527  -0.000   0.000
   21    3    1    2        3       0.632   1.895   0.000  -2.527  -0.000   0.000
   22    4    1    2        3       0.632   1.895   0.000  -2.527  -0.000   0.000
   23    4    1    5        3       0.632   1.895   0.000  -2.527  -0.000   0.000
   22    4    1    3        3       0.632   1.895   0.000  -2.527  -0.000   0.000
   23    4    1    2        3       0.632   1.895   0.000  -2.527  -0.000   0.000
   20    3    1    5        3       0.632   1.895   0.000  -2.527  -0.000   0.000
   21    3    1    4        3       0.632   1.895   0.000  -2.527  -0.000   0.000
   21    3    1    5        3       0.632   1.895   0.000  -2.527  -0.000   0.000
   23    4    1    3        3       0.632   1.895   0.000  -2.527  -0.000   0.000
   19    2    1    3        3       0.632   1.895   0.000  -2.527  -0.000   0.000
   18    2    1    4        3       0.632   1.895   0.000  -2.527  -0.000   0.000
   22    4    1    5        3       0.632   1.895   0.000  -2.527  -0.000   0.000
   25    5    1    4        3       0.632   1.895   0.000  -2.527  -0.000   0.000
   20    3    1    2        3       0.632   1.895   0.000  -2.527  -0.000   0.000
   18    2    1    5        3       0.632   1.895   0.000  -2.527  -0.000   0.000

[ pairs ]
     3     6    1
     2     7    1
     4     6    1
     2     8    1
     5     6    1
     4     7    1
     3     8    1
     2     9    1
     1    10    1
     5     7    1
     3     9    1
     1    11    1
     5     8    1
     4     9    1
     1    12    1
     1    13    1
     2    14    1
     3    15    1
     4    16    1
     3    18    1
     5    17    1
     4    18    1
     3    19    1
     2    20    1
     5    18    1
     4    19    1
     2    21    1
     5    19    1
     4    20    1
     2    22    1
     5    20    1
     4    21    1
     3    22    1
     2    23    1
     5    21    1
     3    23    1
     2    24    1
     5    22    1
     3    24    1
     2    25    1
     1    26    1
    10    18    1
     5    23    1
     4    24    1
     3    25    1
     1    27    1
    10    19    1
     4    25    1
     1    28    1
     1    29    1
    11    20    1
     1    30    1
    11    21    1
     1    31    1
     1    32    1
    12    22    1
     1    33    1
    12    23    1
     2    34    1
    13    24    1
     2    35    1
    13    25    1
     3    36    1
    14    26    1
     3    37    1
    14    27    1
     4    38    1
    15    28    1
     4    39    1
    18    26    1
    15    29    1
    19    26    1
    18    27    1
     5    40    1
    19    27    1
    16    30    1
     5    41    1
    16    31    1
    20    28    1
     6    42    1
    21    28    1
    20    29    1
    17    32    1
     6    43    1
    21    29    1
    17    33    1
     6    44    1
    22    30    1
     7    45    1
    23    30    1
    22    31    1
     7    46    1
    23    31    1
     7    47    1
    24    32    1
     8    48    1
    25    32    1
    24    33    1
     8    49    1
    25    33    1
     8    50    1
    26    34    1
     9    51    1
    27    34    1
    26    35    1
     9    52    1
    27    35    1
     9    53    1
    28    36    1
    29    36    1
    28    37    1
    29    37    1
    30    38    1
    31    38    1
    30    39    1
    31    39    1
    32    40    1
    33    40    1
    32    41    1
    33    41    1
    34    42    1
    35    42    1
    34    43    1
    35    43    1
    34    44    1
    35    44    1
    36    45    1
    37    45    1
    36    46    1
    37    46    1
    36    47    1
    37    47    1
    38    48    1
    39    48    1
    38    49    1
    39    49    1
    38    50    1
    39    50    1
    40    51    1
    41    51    1
    40    52    1
    41    52    1
    40    53    1
    41    53    1

