; 
; 
; 
;              An extender, a parser, a website -- are you getting it?????
;                                  ITP made through POLYX
; 
; 
; 
 
 
[ moleculetype ]
; Name               nrexcl

   UNK         3                 
 
[ atoms ]
; nr      type  resnr   residue    atom   cgnr     charge       mass

    1       opls_870      1         UNK        C20         1       -0.364927   12.0110              
    2       opls_871      1         UNK        C21         1       -0.109687   12.0110              
    3       opls_868      1         UNK        S1Y         1       0.281702   32.0670              
    4       opls_869      1         UNK        C1Z         1       -0.136647   12.0110              
    5       opls_872      1         UNK        H22         1       0.152956    1.0080              
    6       opls_867      1         UNK        C1X         1       -0.188267   12.0110              
    7       opls_873      1         UNK        H23         1       0.161989    1.0080              
    8       opls_865      1         UNK        C1V         1       -0.178020   12.0110              
    9       opls_866      1         UNK        C1W         1       -0.190147   12.0110              
    10      opls_861      1         UNK        S1R         1       0.328690   32.0670              
    11      opls_862      1         UNK        C1S         1       0.332897   12.0110              
    12      opls_874      1         UNK        H24         1       0.163135    1.0080              
    13      opls_860      1         UNK        C1Q         1       -0.216402   12.0110              
    14      opls_863      1         UNK        O1T         1       -0.467352   15.9990              
    15      opls_856      1         UNK        C1M         1       -0.213307   12.0110              
    16      opls_857      1         UNK        C1N         1       0.332980   12.0110              
    17      opls_854      1         UNK        S1J         1       0.330003   32.0670              
    18      opls_855      1         UNK        C1K         1       -0.192208   12.0110              
    19      opls_858      1         UNK        O1O         1       -0.467556   15.9990              
    20      opls_853      1         UNK        C1I         1       -0.188106   12.0110              
    21      opls_878      1         UNK        H28         1       0.164546    1.0080              
    22      opls_851      1         UNK        C1G         1       -0.170432   12.0110              
    23      opls_852      1         UNK        C1H         1       -0.149320   12.0110              
    24      opls_849      1         UNK        S1E         1       0.290545   32.0670              
    25      opls_850      1         UNK        C1F         1       -0.151315   12.0110              
    26      opls_882      1         UNK        H2C         1       0.164169    1.0080              
    27      opls_848      1         UNK        C1D         1       -0.168435   12.0110              
    28      opls_883      1         UNK        H2D         1       0.162906    1.0080              
    29      opls_846      1         UNK        C1B         1       -0.168083   12.0110              
    30      opls_847      1         UNK        C1C         1       -0.151428   12.0110              
    31      opls_844      1         UNK        S19         1       0.290780   32.0670              
    32      opls_845      1         UNK        C1A         1       -0.149194   12.0110              
    33      opls_884      1         UNK        H2E         1       0.163081    1.0080              
    34      opls_843      1         UNK        C18         1       -0.170705   12.0110              
    35      opls_885      1         UNK        H2F         1       0.164237    1.0080              
    36      opls_841      1         UNK        C16         1       -0.187519   12.0110              
    37      opls_842      1         UNK        C17         1       -0.192345   12.0110              
    38      opls_837      1         UNK        S12         1       0.330618   32.0670              
    39      opls_838      1         UNK        C13         1       0.333657   12.0110              
    40      opls_886      1         UNK        H2G         1       0.164906    1.0080              
    41      opls_801      1         UNK        C01         1       -0.214175   12.0110              
    42      opls_839      1         UNK        O14         1       -0.467562   15.9990              
    43      opls_800      1         UNK        C00         1       -0.214175   12.0110              
    44      opls_802      1         UNK        C02         1       0.333657   12.0110              
    45      opls_803      1         UNK        S03         1       0.330618   32.0670              
    46      opls_804      1         UNK        C04         1       -0.192345   12.0110              
    47      opls_805      1         UNK        O05         1       -0.467562   15.9990              
    48      opls_806      1         UNK        C06         1       -0.187519   12.0110              
    49      opls_890      1         UNK        H2K         1       0.164906    1.0080              
    50      opls_808      1         UNK        C08         1       -0.170705   12.0110              
    51      opls_809      1         UNK        C09         1       -0.149194   12.0110              
    52      opls_810      1         UNK        S0A         1       0.290780   32.0670              
    53      opls_811      1         UNK        C0B         1       -0.151429   12.0110              
    54      opls_894      1         UNK        H2P         1       0.164237    1.0080              
    55      opls_812      1         UNK        C0C         1       -0.168082   12.0110              
    56      opls_895      1         UNK        H2Q         1       0.163081    1.0080              
    57      opls_813      1         UNK        C0D         1       -0.168434   12.0110              
    58      opls_814      1         UNK        C0E         1       -0.151315   12.0110              
    59      opls_815      1         UNK        S0F         1       0.290545   32.0670              
    60      opls_816      1         UNK        C0G         1       -0.149320   12.0110              
    61      opls_896      1         UNK        H2R         1       0.162906    1.0080              
    62      opls_817      1         UNK        C0H         1       -0.170432   12.0110              
    63      opls_897      1         UNK        H2S         1       0.164169    1.0080              
    64      opls_818      1         UNK        C0I         1       -0.188106   12.0110              
    65      opls_819      1         UNK        C0J         1       -0.192207   12.0110              
    66      opls_820      1         UNK        S0K         1       0.330003   32.0670              
    67      opls_821      1         UNK        C0M         1       0.332980   12.0110              
    68      opls_898      1         UNK        H2T         1       0.164546    1.0080              
    69      opls_822      1         UNK        C0N         1       -0.213307   12.0110              
    70      opls_823      1         UNK        O0O         1       -0.467556   15.9990              
    71      opls_824      1         UNK        C0P         1       -0.216402   12.0110              
    72      opls_826      1         UNK        C0R         1       0.332897   12.0110              
    73      opls_827      1         UNK        S0S         1       0.328690   32.0670              
    74      opls_828      1         UNK        C0T         1       -0.190147   12.0110              
    75      opls_829      1         UNK        O0U         1       -0.467352   15.9990              
    76      opls_830      1         UNK        C0V         1       -0.178020   12.0110              
    77      opls_9502      1         UNK        H2X         1       0.163135    1.0080              
    78      opls_832      1         UNK        C0X         1       -0.188267   12.0110              
    79      opls_833      1         UNK        C0Y         1       -0.136648   12.0110              
    80      opls_834      1         UNK        S0Z         1       0.281702   32.0670              
    81      opls_835      1         UNK        C10         1       -0.109687   12.0110              
    82      opls_9506      1         UNK        H31         1       0.161989    1.0080              
    83      opls_836      1         UNK        C11         1       -0.364927   12.0110              
    84      opls_9507      1         UNK        H32         1       0.152956    1.0080              
    85      opls_9508      1         UNK        H33         1       0.183580    1.0080              
    86      opls_9509      1         UNK        H34         1       0.183580    1.0080              
    87      opls_818      1          H         C0I         1        0.0061    12.0110   
    88      opls_822      1          H         C0N         1        0.0071    12.0110   
    89      opls_823      1          H         H0O         1        0.1092     1.0080   
    90      opls_824      1          H         H0P         1        0.1092     1.0080   
    91      opls_825      1          H         O0Q         1       -0.3841    15.9990   
    92      opls_826      1          H         H0R         1        0.0955     1.0080   
    93      opls_827      1          H         H0S         1        0.0955     1.0080   
    94      opls_828      1          H         C0T         1        0.0086    12.0110   
    95      opls_829      1          H         C0U         1        0.0098    12.0110   
    96      opls_830      1          H         H0V         1        0.0924     1.0080   
    97      opls_831      1          H         H0W         1        0.0924     1.0080   
    98      opls_832      1          H         O0X         2       -0.3853    15.9990   
    99      opls_833      1          H         H0Y         2        0.0916     1.0080   
   100      opls_834      1          H         H0Z         2        0.0916     1.0080   
   101      opls_835      1          H         C10         2        0.0086    12.0110   
   102      opls_836      1          H         C11         2        0.0034    12.0110   
   103      opls_837      1          H         H12         2        0.0914     1.0080   
   104      opls_838      1          H         H13         2        0.0914     1.0080   
   105      opls_839      1          H         O14         2       -0.3816    15.9990   
   106      opls_840      1          H         H15         2        0.0891     1.0080   
   107      opls_841      1          H         H16         2        0.0891     1.0080   
   108      opls_842      1          H         C17         2       -0.0440    12.0110   
   109      opls_843      1          H         H18         2        0.0831     1.0080   
   110      opls_844      1          H         H19         2        0.0831     1.0080   
   111      opls_845      1          H         H1A         2        0.0831     1.0080   
   112      opls_818      1          H         C0I         1        0.0061    12.0110   
   113      opls_822      1          H         C0N         1        0.0071    12.0110   
   114      opls_823      1          H         H0O         1        0.1092     1.0080   
   115      opls_824      1          H         H0P         1        0.1092     1.0080   
   116      opls_825      1          H         O0Q         1       -0.3841    15.9990   
   117      opls_826      1          H         H0R         1        0.0955     1.0080   
   118      opls_827      1          H         H0S         1        0.0955     1.0080   
   119      opls_828      1          H         C0T         1        0.0086    12.0110   
   120      opls_829      1          H         C0U         1        0.0098    12.0110   
   121      opls_830      1          H         H0V         1        0.0924     1.0080   
   122      opls_831      1          H         H0W         1        0.0924     1.0080   
   123      opls_832      1          H         O0X         2       -0.3853    15.9990   
   124      opls_833      1          H         H0Y         2        0.0916     1.0080   
   125      opls_834      1          H         H0Z         2        0.0916     1.0080   
   126      opls_835      1          H         C10         2        0.0086    12.0110   
   127      opls_836      1          H         C11         2        0.0034    12.0110   
   128      opls_837      1          H         H12         2        0.0914     1.0080   
   129      opls_838      1          H         H13         2        0.0914     1.0080   
   130      opls_839      1          H         O14         2       -0.3816    15.9990   
   131      opls_840      1          H         H15         2        0.0891     1.0080   
   132      opls_841      1          H         H16         2        0.0891     1.0080   
   133      opls_842      1          H         C17         2       -0.0440    12.0110   
   134      opls_843      1          H         H18         2        0.0831     1.0080   
   135      opls_844      1          H         H19         2        0.0831     1.0080   
   136      opls_845      1          H         H1A         2        0.0831     1.0080   
   137      opls_818      1          H         C0I         1        0.0061    12.0110   
   138      opls_822      1          H         C0N         1        0.0071    12.0110   
   139      opls_823      1          H         H0O         1        0.1092     1.0080   
   140      opls_824      1          H         H0P         1        0.1092     1.0080   
   141      opls_825      1          H         O0Q         1       -0.3841    15.9990   
   142      opls_826      1          H         H0R         1        0.0955     1.0080   
   143      opls_827      1          H         H0S         1        0.0955     1.0080   
   144      opls_828      1          H         C0T         1        0.0086    12.0110   
   145      opls_829      1          H         C0U         1        0.0098    12.0110   
   146      opls_830      1          H         H0V         1        0.0924     1.0080   
   147      opls_831      1          H         H0W         1        0.0924     1.0080   
   148      opls_832      1          H         O0X         2       -0.3853    15.9990   
   149      opls_833      1          H         H0Y         2        0.0916     1.0080   
   150      opls_834      1          H         H0Z         2        0.0916     1.0080   
   151      opls_835      1          H         C10         2        0.0086    12.0110   
   152      opls_836      1          H         C11         2        0.0034    12.0110   
   153      opls_837      1          H         H12         2        0.0914     1.0080   
   154      opls_838      1          H         H13         2        0.0914     1.0080   
   155      opls_839      1          H         O14         2       -0.3816    15.9990   
   156      opls_840      1          H         H15         2        0.0891     1.0080   
   157      opls_841      1          H         H16         2        0.0891     1.0080   
   158      opls_842      1          H         C17         2       -0.0440    12.0110   
   159      opls_843      1          H         H18         2        0.0831     1.0080   
   160      opls_844      1          H         H19         2        0.0831     1.0080   
   161      opls_845      1          H         H1A         2        0.0831     1.0080   
   162      opls_818      1          H         C0I         1        0.0061    12.0110   
   163      opls_822      1          H         C0N         1        0.0071    12.0110   
   164      opls_823      1          H         H0O         1        0.1092     1.0080   
   165      opls_824      1          H         H0P         1        0.1092     1.0080   
   166      opls_825      1          H         O0Q         1       -0.3841    15.9990   
   167      opls_826      1          H         H0R         1        0.0955     1.0080   
   168      opls_827      1          H         H0S         1        0.0955     1.0080   
   169      opls_828      1          H         C0T         1        0.0086    12.0110   
   170      opls_829      1          H         C0U         1        0.0098    12.0110   
   171      opls_830      1          H         H0V         1        0.0924     1.0080   
   172      opls_831      1          H         H0W         1        0.0924     1.0080   
   173      opls_832      1          H         O0X         2       -0.3853    15.9990   
   174      opls_833      1          H         H0Y         2        0.0916     1.0080   
   175      opls_834      1          H         H0Z         2        0.0916     1.0080   
   176      opls_835      1          H         C10         2        0.0086    12.0110   
   177      opls_836      1          H         C11         2        0.0034    12.0110   
   178      opls_837      1          H         H12         2        0.0914     1.0080   
   179      opls_838      1          H         H13         2        0.0914     1.0080   
   180      opls_839      1          H         O14         2       -0.3816    15.9990   
   181      opls_840      1          H         H15         2        0.0891     1.0080   
   182      opls_841      1          H         H16         2        0.0891     1.0080   
   183      opls_842      1          H         C17         2       -0.0440    12.0110   
   184      opls_843      1          H         H18         2        0.0831     1.0080   
   185      opls_844      1          H         H19         2        0.0831     1.0080   
   186      opls_845      1          H         H1A         2        0.0831     1.0080   
   187      opls_818      1          H         C0I         1        0.0061    12.0110   
   188      opls_822      1          H         C0N         1        0.0071    12.0110   
   189      opls_823      1          H         H0O         1        0.1092     1.0080   
   190      opls_824      1          H         H0P         1        0.1092     1.0080   
   191      opls_825      1          H         O0Q         1       -0.3841    15.9990   
   192      opls_826      1          H         H0R         1        0.0955     1.0080   
   193      opls_827      1          H         H0S         1        0.0955     1.0080   
   194      opls_828      1          H         C0T         1        0.0086    12.0110   
   195      opls_829      1          H         C0U         1        0.0098    12.0110   
   196      opls_830      1          H         H0V         1        0.0924     1.0080   
   197      opls_831      1          H         H0W         1        0.0924     1.0080   
   198      opls_832      1          H         O0X         2       -0.3853    15.9990   
   199      opls_833      1          H         H0Y         2        0.0916     1.0080   
   200      opls_834      1          H         H0Z         2        0.0916     1.0080   
   201      opls_835      1          H         C10         2        0.0086    12.0110   
   202      opls_836      1          H         C11         2        0.0034    12.0110   
   203      opls_837      1          H         H12         2        0.0914     1.0080   
   204      opls_838      1          H         H13         2        0.0914     1.0080   
   205      opls_839      1          H         O14         2       -0.3816    15.9990   
   206      opls_840      1          H         H15         2        0.0891     1.0080   
   207      opls_841      1          H         H16         2        0.0891     1.0080   
   208      opls_842      1          H         C17         2       -0.0440    12.0110   
   209      opls_843      1          H         H18         2        0.0831     1.0080   
   210      opls_844      1          H         H19         2        0.0831     1.0080   
   211      opls_845      1          H         H1A         2        0.0831     1.0080   
   212      opls_818      1          H         C0I         1        0.0061    12.0110   
   213      opls_822      1          H         C0N         1        0.0071    12.0110   
   214      opls_823      1          H         H0O         1        0.1092     1.0080   
   215      opls_824      1          H         H0P         1        0.1092     1.0080   
   216      opls_825      1          H         O0Q         1       -0.3841    15.9990   
   217      opls_826      1          H         H0R         1        0.0955     1.0080   
   218      opls_827      1          H         H0S         1        0.0955     1.0080   
   219      opls_828      1          H         C0T         1        0.0086    12.0110   
   220      opls_829      1          H         C0U         1        0.0098    12.0110   
   221      opls_830      1          H         H0V         1        0.0924     1.0080   
   222      opls_831      1          H         H0W         1        0.0924     1.0080   
   223      opls_832      1          H         O0X         2       -0.3853    15.9990   
   224      opls_833      1          H         H0Y         2        0.0916     1.0080   
   225      opls_834      1          H         H0Z         2        0.0916     1.0080   
   226      opls_835      1          H         C10         2        0.0086    12.0110   
   227      opls_836      1          H         C11         2        0.0034    12.0110   
   228      opls_837      1          H         H12         2        0.0914     1.0080   
   229      opls_838      1          H         H13         2        0.0914     1.0080   
   230      opls_839      1          H         O14         2       -0.3816    15.9990   
   231      opls_840      1          H         H15         2        0.0891     1.0080   
   232      opls_841      1          H         H16         2        0.0891     1.0080   
   233      opls_842      1          H         C17         2       -0.0440    12.0110   
   234      opls_843      1          H         H18         2        0.0831     1.0080   
   235      opls_844      1          H         H19         2        0.0831     1.0080   
   236      opls_845      1          H         H1A         2        0.0831     1.0080   
 
[ bonds ]
;  ai    aj   funct      c0       c1

 41    43      1       0.1424    392459.200             
 44    43      1       0.1424    392459.200             
 45    43      1       0.1760    209200.000             
 46    44      1       0.1424    392459.200             
 47    44      1       0.1364    376560.000             
 48    46      1       0.1424    392459.200             
 50    48      1       0.1424    392459.200             
 51    50      1       0.1424    392459.200             
 52    50      1       0.1760    209200.000             
 53    51      1       0.1424    392459.200             
 55    53      1       0.1424    392459.200             
 57    55      1       0.1424    392459.200             
 58    57      1       0.1424    392459.200             
 59    57      1       0.1760    209200.000             
 60    58      1       0.1424    392459.200             
 62    60      1       0.1424    392459.200             
 64    62      1       0.1424    392459.200             
 65    64      1       0.1424    392459.200             
 66    64      1       0.1760    209200.000             
 67    65      1       0.1424    392459.200             
 69    67      1       0.1424    392459.200             
 70    67      1       0.1364    376560.000             
 71    69      1       0.1424    392459.200             
 72    71      1       0.1424    392459.200             
 73    71      1       0.1760    209200.000             
 74    72      1       0.1424    392459.200             
 75    72      1       0.1364    376560.000             
 76    74      1       0.1424    392459.200             
 78    76      1       0.1424    392459.200             
 79    78      1       0.1424    392459.200             
 80    78      1       0.1760    209200.000             
 81    79      1       0.1424    392459.200             
 83    80      1       0.1740    209200.000             
 38    41      1       0.1760    209200.000             
 39    41      1       0.1424    392459.200             
 42    39      1       0.1364    376560.000             
 36    38      1       0.1760    209200.000             
 37    36      1       0.1424    392459.200             
 34    36      1       0.1424    392459.200             
 31    34      1       0.1760    209200.000             
 32    34      1       0.1424    392459.200             
 29    31      1       0.1760    209200.000             
 30    29      1       0.1424    392459.200             
 27    29      1       0.1424    392459.200             
 24    27      1       0.1760    209200.000             
 25    27      1       0.1424    392459.200             
 22    24      1       0.1760    209200.000             
 23    22      1       0.1424    392459.200             
 20    22      1       0.1424    392459.200             
 17    20      1       0.1760    209200.000             
 18    20      1       0.1424    392459.200             
 15    17      1       0.1760    209200.000             
 16    15      1       0.1424    392459.200             
 19    16      1       0.1364    376560.000             
 13    15      1       0.1424    392459.200             
 10    13      1       0.1760    209200.000             
 11    13      1       0.1424    392459.200             
 14    11      1       0.1364    376560.000             
 8    10       1       0.1760    209200.000             
  9    8       1       0.1424    392459.200             
  6    8       1       0.1424    392459.200             
  3    6       1       0.1760    209200.000             
  4    6       1       0.1424    392459.200             
  1    3       1       0.1740    209200.000             
  2    1       1       0.1380    456892.800             
  5    2       1       0.1080    307105.600             
  7    4       1       0.1080    307105.600             
 12    9       1       0.1080    307105.600             
 21    18      1       0.1080    307105.600             
 26    23      1       0.1080    307105.600             
 28    25      1       0.1080    307105.600             
 33    30      1       0.1080    307105.600             
 35    32      1       0.1080    307105.600             
 40    37      1       0.1080    307105.600             
 49    46      1       0.1080    307105.600             
 54    51      1       0.1080    307105.600             
 56    53      1       0.1080    307105.600             
 61    58      1       0.1080    307105.600             
 63    60      1       0.1080    307105.600             
 68    65      1       0.1080    307105.600             
 77    74      1       0.1080    307105.600             
 82    79      1       0.1080    307105.600             
 84    81      1       0.1080    307105.600             
 85    1       1       0.1080    307105.600             
 86    83      1       0.1080    307105.600             
 48    45      1       0.1760    209200.000             
 55    52      1       0.1760    209200.000             
 62    59      1       0.1760    209200.000             
 69    66      1       0.1760    209200.000             
 76    73      1       0.1760    209200.000             
 83    81      1       0.1380    456892.800             
 37    39      1       0.1424    392459.200             
 30    32      1       0.1424    392459.200             
 23    25      1       0.1424    392459.200             
 16    18      1       0.1424    392459.200             
 9    11       1       0.1424    392459.200             
  2    4       1       0.1424    392459.200             
 75    72      1       0.1364    376560.000  
 87    75      1       0.1410    267776.000  
 88    87      1       0.1529    224262.400  
 89    87      1       0.1090    284512.000  
 90    87      1       0.1090    284512.000  
 91    88      1       0.1410    267776.000  
 92    88      1       0.1090    284512.000  
 93    88      1       0.1090    284512.000  
 94    91      1       0.1410    267776.000  
 95    94      1       0.1529    224262.400  
 96    94      1       0.1090    284512.000  
 97    94      1       0.1090    284512.000  
 98    95      1       0.1410    267776.000  
 99    95      1       0.1090    284512.000  
 100    95      1       0.1090    284512.000  
 101    98      1       0.1410    267776.000  
 102    101      1       0.1529    224262.400  
 103    101      1       0.1090    284512.000  
 104    101      1       0.1090    284512.000  
 105    102      1       0.1410    267776.000  
 106    102      1       0.1090    284512.000  
 107    102      1       0.1090    284512.000  
 108    105      1       0.1410    267776.000  
 109    108      1       0.1090    284512.000  
 110    108      1       0.1090    284512.000  
 111    108      1       0.1090    284512.000  
 47    44      1       0.1364    376560.000  
 112    47      1       0.1410    267776.000  
 113    112      1       0.1529    224262.400  
 114    112      1       0.1090    284512.000  
 115    112      1       0.1090    284512.000  
 116    113      1       0.1410    267776.000  
 117    113      1       0.1090    284512.000  
 118    113      1       0.1090    284512.000  
 119    116      1       0.1410    267776.000  
 120    119      1       0.1529    224262.400  
 121    119      1       0.1090    284512.000  
 122    119      1       0.1090    284512.000  
 123    120      1       0.1410    267776.000  
 124    120      1       0.1090    284512.000  
 125    120      1       0.1090    284512.000  
 126    123      1       0.1410    267776.000  
 127    126      1       0.1529    224262.400  
 128    126      1       0.1090    284512.000  
 129    126      1       0.1090    284512.000  
 130    127      1       0.1410    267776.000  
 131    127      1       0.1090    284512.000  
 132    127      1       0.1090    284512.000  
 133    130      1       0.1410    267776.000  
 134    133      1       0.1090    284512.000  
 135    133      1       0.1090    284512.000  
 136    133      1       0.1090    284512.000  
 70    67      1       0.1364    376560.000  
 137    70      1       0.1410    267776.000  
 138    137      1       0.1529    224262.400  
 139    137      1       0.1090    284512.000  
 140    137      1       0.1090    284512.000  
 141    138      1       0.1410    267776.000  
 142    138      1       0.1090    284512.000  
 143    138      1       0.1090    284512.000  
 144    141      1       0.1410    267776.000  
 145    144      1       0.1529    224262.400  
 146    144      1       0.1090    284512.000  
 147    144      1       0.1090    284512.000  
 148    145      1       0.1410    267776.000  
 149    145      1       0.1090    284512.000  
 150    145      1       0.1090    284512.000  
 151    148      1       0.1410    267776.000  
 152    151      1       0.1529    224262.400  
 153    151      1       0.1090    284512.000  
 154    151      1       0.1090    284512.000  
 155    152      1       0.1410    267776.000  
 156    152      1       0.1090    284512.000  
 157    152      1       0.1090    284512.000  
 158    155      1       0.1410    267776.000  
 159    158      1       0.1090    284512.000  
 160    158      1       0.1090    284512.000  
 161    158      1       0.1090    284512.000  
 42    39      1       0.1364    376560.000  
 162    42      1       0.1410    267776.000  
 163    162      1       0.1529    224262.400  
 164    162      1       0.1090    284512.000  
 165    162      1       0.1090    284512.000  
 166    163      1       0.1410    267776.000  
 167    163      1       0.1090    284512.000  
 168    163      1       0.1090    284512.000  
 169    166      1       0.1410    267776.000  
 170    169      1       0.1529    224262.400  
 171    169      1       0.1090    284512.000  
 172    169      1       0.1090    284512.000  
 173    170      1       0.1410    267776.000  
 174    170      1       0.1090    284512.000  
 175    170      1       0.1090    284512.000  
 176    173      1       0.1410    267776.000  
 177    176      1       0.1529    224262.400  
 178    176      1       0.1090    284512.000  
 179    176      1       0.1090    284512.000  
 180    177      1       0.1410    267776.000  
 181    177      1       0.1090    284512.000  
 182    177      1       0.1090    284512.000  
 183    180      1       0.1410    267776.000  
 184    183      1       0.1090    284512.000  
 185    183      1       0.1090    284512.000  
 186    183      1       0.1090    284512.000  
 19    16      1       0.1364    376560.000  
 187    19      1       0.1410    267776.000  
 188    187      1       0.1529    224262.400  
 189    187      1       0.1090    284512.000  
 190    187      1       0.1090    284512.000  
 191    188      1       0.1410    267776.000  
 192    188      1       0.1090    284512.000  
 193    188      1       0.1090    284512.000  
 194    191      1       0.1410    267776.000  
 195    194      1       0.1529    224262.400  
 196    194      1       0.1090    284512.000  
 197    194      1       0.1090    284512.000  
 198    195      1       0.1410    267776.000  
 199    195      1       0.1090    284512.000  
 200    195      1       0.1090    284512.000  
 201    198      1       0.1410    267776.000  
 202    201      1       0.1529    224262.400  
 203    201      1       0.1090    284512.000  
 204    201      1       0.1090    284512.000  
 205    202      1       0.1410    267776.000  
 206    202      1       0.1090    284512.000  
 207    202      1       0.1090    284512.000  
 208    205      1       0.1410    267776.000  
 209    208      1       0.1090    284512.000  
 210    208      1       0.1090    284512.000  
 211    208      1       0.1090    284512.000  
 14    11      1       0.1364    376560.000  
 212    14      1       0.1410    267776.000  
 213    212      1       0.1529    224262.400  
 214    212      1       0.1090    284512.000  
 215    212      1       0.1090    284512.000  
 216    213      1       0.1410    267776.000  
 217    213      1       0.1090    284512.000  
 218    213      1       0.1090    284512.000  
 219    216      1       0.1410    267776.000  
 220    219      1       0.1529    224262.400  
 221    219      1       0.1090    284512.000  
 222    219      1       0.1090    284512.000  
 223    220      1       0.1410    267776.000  
 224    220      1       0.1090    284512.000  
 225    220      1       0.1090    284512.000  
 226    223      1       0.1410    267776.000  
 227    226      1       0.1529    224262.400  
 228    226      1       0.1090    284512.000  
 229    226      1       0.1090    284512.000  
 230    227      1       0.1410    267776.000  
 231    227      1       0.1090    284512.000  
 232    227      1       0.1090    284512.000  
 233    230      1       0.1410    267776.000  
 234    233      1       0.1090    284512.000  
 235    233      1       0.1090    284512.000  
 236    233      1       0.1090    284512.000  
 
[ angles ]
;  ai    aj   ak  funct      c0       c1 

 44    43    41      1       120.000    527.184             
 45    43    41      1       119.400    711.280             
 46    44    43      1       120.000    527.184             
 47    44    43      1       120.000    585.760             
 48    46    44      1       120.000    527.184             
 50    48    46      1       120.000    527.184             
 51    50    48      1       120.000    527.184             
 52    50    48      1       119.400    711.280             
 53    51    50      1       120.000    527.184             
 55    53    51      1       120.000    527.184             
 57    55    53      1       120.000    527.184             
 58    57    55      1       120.000    527.184             
 59    57    55      1       119.400    711.280             
 60    58    57      1       120.000    527.184             
 62    60    58      1       120.000    527.184             
 64    62    60      1       120.000    527.184             
 65    64    62      1       120.000    527.184             
 66    64    62      1       119.400    711.280             
 67    65    64      1       120.000    527.184             
 69    67    65      1       120.000    527.184             
 70    67    65      1       120.000    585.760             
 71    69    67      1       120.000    527.184             
 72    71    69      1       120.000    527.184             
 73    71    69      1       119.400    711.280             
 74    72    71      1       120.000    527.184             
 75    72    71      1       120.000    585.760             
 76    74    72      1       120.000    527.184             
 78    76    74      1       120.000    527.184             
 79    78    76      1       120.000    527.184             
 80    78    76      1       119.400    711.280             
 81    79    78      1       120.000    527.184             
 83    80    78      1       106.390    829.185             
 38    41    43      1       119.400    711.280             
 39    41    43      1       120.000    527.184             
 42    39    41      1       120.000    585.760             
 36    38    41      1       106.390    829.185             
 37    36    38      1       119.400    711.280             
 34    36    38      1       119.400    711.280             
 31    34    36      1       119.400    711.280             
 32    34    36      1       120.000    527.184             
 29    31    34      1       106.390    829.185             
 30    29    31      1       119.400    711.280             
 27    29    31      1       119.400    711.280             
 24    27    29      1       119.400    711.280             
 25    27    29      1       120.000    527.184             
 22    24    27      1       106.390    829.185             
 23    22    24      1       119.400    711.280             
 20    22    24      1       119.400    711.280             
 17    20    22      1       119.400    711.280             
 18    20    22      1       120.000    527.184             
 15    17    20      1       106.390    829.185             
 16    15    17      1       119.400    711.280             
 19    16    15      1       120.000    585.760             
 13    15    17      1       119.400    711.280             
 10    13    15      1       119.400    711.280             
 11    13    15      1       120.000    527.184             
 14    11    13      1       120.000    585.760             
 8    10    13      1       106.390    829.185             
 9    8    10      1       119.400    711.280             
 6    8    10      1       119.400    711.280             
 3    6    8      1       119.400    711.280             
 4    6    8      1       120.000    527.184             
 1    3    6      1       106.390    829.185             
 2    1    3      1       111.000    585.760             
 5    2    1      1       123.100    292.880             
 7    4    6      1       127.500    292.880             
 12    9    8      1       127.500    292.880             
 21    18    20      1       127.500    292.880             
 26    23    22      1       127.500    292.880             
 28    25    27      1       127.500    292.880             
 33    30    29      1       127.500    292.880             
 35    32    34      1       127.500    292.880             
 40    37    36      1       127.500    292.880             
 49    46    44      1       127.500    292.880             
 54    51    50      1       127.500    292.880             
 56    53    51      1       127.500    292.880             
 61    58    57      1       127.500    292.880             
 63    60    58      1       127.500    292.880             
 68    65    64      1       127.500    292.880             
 77    74    72      1       127.500    292.880             
 82    79    78      1       127.500    292.880             
 84    81    79      1       127.500    292.880             
 85    1    3      1       120.000    292.880             
 86    83    80      1       120.000    292.880             
 45    43    44      1       119.400    711.280             
 47    44    46      1       120.000    585.760             
 49    46    48      1       127.500    292.880             
 43    45    48      1       106.390    829.185             
 45    48    50      1       119.400    711.280             
 52    50    51      1       119.400    711.280             
 54    51    53      1       127.500    292.880             
 56    53    55      1       127.500    292.880             
 50    52    55      1       106.390    829.185             
 52    55    57      1       119.400    711.280             
 59    57    58      1       119.400    711.280             
 61    58    60      1       127.500    292.880             
 63    60    62      1       127.500    292.880             
 57    59    62      1       106.390    829.185             
 59    62    64      1       119.400    711.280             
 66    64    65      1       119.400    711.280             
 68    65    67      1       127.500    292.880             
 70    67    69      1       120.000    585.760             
 64    66    69      1       106.390    829.185             
 66    69    71      1       119.400    711.280             
 73    71    72      1       119.400    711.280             
 75    72    74      1       120.000    585.760             
 77    74    76      1       127.500    292.880             
 71    73    76      1       106.390    829.185             
 73    76    78      1       119.400    711.280             
 80    78    79      1       119.400    711.280             
 82    79    81      1       127.500    292.880             
 79    81    83      1       112.300    585.760             
 84    81    83      1       123.100    292.880             
 39    41    38      1       119.400    711.280             
 37    39    42      1       120.000    585.760             
 34    36    37      1       120.000    527.184             
 41    39    37      1       120.000    527.184             
 32    34    31      1       119.400    711.280             
 27    29    30      1       120.000    527.184             
 34    32    30      1       120.000    527.184             
 35    32    30      1       127.500    292.880             
 25    27    24      1       119.400    711.280             
 20    22    23      1       120.000    527.184             
 27    25    23      1       120.000    527.184             
 28    25    23      1       127.500    292.880             
 18    20    17      1       119.400    711.280             
 13    15    16      1       120.000    527.184             
 20    18    16      1       120.000    527.184             
 21    18    16      1       127.500    292.880             
 18    16    19      1       120.000    585.760             
 11    13    10      1       119.400    711.280             
 9    11    14      1       120.000    585.760             
 6    8    9      1       120.000    527.184             
 13    11    9      1       120.000    527.184             
 4    6    3      1       119.400    711.280             
 85    1    2      1       128.200    292.880             
 6    4    2      1       120.000    527.184             
 7    4    2      1       127.500    292.880             
 4    2    5      1       127.500    292.880             
 11    9    12      1       127.500    292.880             
 25    23    26      1       127.500    292.880             
 32    30    33      1       127.500    292.880             
 39    37    40      1       127.500    292.880             
 81    83    86      1       128.200    292.880             
 46    48    45      1       119.400    711.280             
 53    55    52      1       119.400    711.280             
 60    62    59      1       119.400    711.280             
 67    69    66      1       119.400    711.280             
 74    76    73      1       119.400    711.280             
 80    83    81      1       111.000    585.760             
 36    37    39      1       120.000    527.184             
 29    30    32      1       120.000    527.184             
 22    23    25      1       120.000    527.184             
 15    16    18      1       120.000    527.184             
 8    9    11      1       120.000    527.184             
 1    2    4      1       112.300    585.760             
 74    72    75      1       120.000    585.760  
 72    75    87      1       111.000    627.600  
 75    87    88      1       109.500    418.400  
 75    87    89      1       109.500    292.880  
 75    87    90      1       109.500    292.880  
 87    88    91      1       109.500    418.400  
 87    88    92      1       110.700    313.800  
 87    88    93      1       110.700    313.800  
 88    91    94      1       109.500    502.080  
 91    94    95      1       109.500    418.400  
 91    94    96      1       109.500    292.880  
 91    94    97      1       109.500    292.880  
 94    95    98      1       109.500    418.400  
 94    95    99      1       110.700    313.800  
 94    95    100      1       110.700    313.800  
 95    98    101      1       109.500    502.080  
 98    101    102      1       109.500    418.400  
 98    101    103      1       109.500    292.880  
 98    101    104      1       109.500    292.880  
 101    102    105      1       109.500    418.400  
 101    102    106      1       110.700    313.800  
 101    102    107      1       110.700    313.800  
 102    105    108      1       109.500    502.080  
 105    108    109      1       109.500    292.880  
 105    108    110      1       109.500    292.880  
 105    108    111      1       109.500    292.880  
 95    94    96      1       110.700    313.800  
 88    87    90      1       110.700    313.800  
 106    102    107      1       107.800    276.144  
 91    88    92      1       109.500    292.880  
 102    101    104      1       110.700    313.800  
 91    88    93      1       109.500    292.880  
 92    88    93      1       107.800    276.144  
 109    108    110      1       107.800    276.144  
 95    94    97      1       110.700    313.800  
 88    87    89      1       110.700    313.800  
 105    102    107      1       109.500    292.880  
 102    101    103      1       110.700    313.800  
 110    108    111      1       107.800    276.144  
 96    94    97      1       107.800    276.144  
 105    102    106      1       109.500    292.880  
 98    95    99      1       109.500    292.880  
 98    95    100      1       109.500    292.880  
 71    72    75      1       120.000    585.760  
 99    95    100      1       107.800    276.144  
 89    87    90      1       107.800    276.144  
 109    108    111      1       107.800    276.144  
 103    101    104      1       107.800    276.144  
 46    44    47      1       120.000    585.760  
 44    47    112      1       111.000    627.600  
 47    112    113      1       109.500    418.400  
 47    112    114      1       109.500    292.880  
 47    112    115      1       109.500    292.880  
 112    113    116      1       109.500    418.400  
 112    113    117      1       110.700    313.800  
 112    113    118      1       110.700    313.800  
 113    116    119      1       109.500    502.080  
 116    119    120      1       109.500    418.400  
 116    119    121      1       109.500    292.880  
 116    119    122      1       109.500    292.880  
 119    120    123      1       109.500    418.400  
 119    120    124      1       110.700    313.800  
 119    120    125      1       110.700    313.800  
 120    123    126      1       109.500    502.080  
 123    126    127      1       109.500    418.400  
 123    126    128      1       109.500    292.880  
 123    126    129      1       109.500    292.880  
 126    127    130      1       109.500    418.400  
 126    127    131      1       110.700    313.800  
 126    127    132      1       110.700    313.800  
 127    130    133      1       109.500    502.080  
 130    133    134      1       109.500    292.880  
 130    133    135      1       109.500    292.880  
 130    133    136      1       109.500    292.880  
 120    119    121      1       110.700    313.800  
 113    112    115      1       110.700    313.800  
 131    127    132      1       107.800    276.144  
 116    113    117      1       109.500    292.880  
 127    126    129      1       110.700    313.800  
 116    113    118      1       109.500    292.880  
 117    113    118      1       107.800    276.144  
 134    133    135      1       107.800    276.144  
 120    119    122      1       110.700    313.800  
 113    112    114      1       110.700    313.800  
 130    127    132      1       109.500    292.880  
 127    126    128      1       110.700    313.800  
 135    133    136      1       107.800    276.144  
 121    119    122      1       107.800    276.144  
 130    127    131      1       109.500    292.880  
 123    120    124      1       109.500    292.880  
 123    120    125      1       109.500    292.880  
 43    44    47      1       120.000    585.760  
 124    120    125      1       107.800    276.144  
 114    112    115      1       107.800    276.144  
 134    133    136      1       107.800    276.144  
 128    126    129      1       107.800    276.144  
 65    67    70      1       120.000    585.760  
 67    70    137      1       111.000    627.600  
 70    137    138      1       109.500    418.400  
 70    137    139      1       109.500    292.880  
 70    137    140      1       109.500    292.880  
 137    138    141      1       109.500    418.400  
 137    138    142      1       110.700    313.800  
 137    138    143      1       110.700    313.800  
 138    141    144      1       109.500    502.080  
 141    144    145      1       109.500    418.400  
 141    144    146      1       109.500    292.880  
 141    144    147      1       109.500    292.880  
 144    145    148      1       109.500    418.400  
 144    145    149      1       110.700    313.800  
 144    145    150      1       110.700    313.800  
 145    148    151      1       109.500    502.080  
 148    151    152      1       109.500    418.400  
 148    151    153      1       109.500    292.880  
 148    151    154      1       109.500    292.880  
 151    152    155      1       109.500    418.400  
 151    152    156      1       110.700    313.800  
 151    152    157      1       110.700    313.800  
 152    155    158      1       109.500    502.080  
 155    158    159      1       109.500    292.880  
 155    158    160      1       109.500    292.880  
 155    158    161      1       109.500    292.880  
 145    144    146      1       110.700    313.800  
 138    137    140      1       110.700    313.800  
 156    152    157      1       107.800    276.144  
 141    138    142      1       109.500    292.880  
 152    151    154      1       110.700    313.800  
 141    138    143      1       109.500    292.880  
 142    138    143      1       107.800    276.144  
 159    158    160      1       107.800    276.144  
 145    144    147      1       110.700    313.800  
 138    137    139      1       110.700    313.800  
 155    152    157      1       109.500    292.880  
 152    151    153      1       110.700    313.800  
 160    158    161      1       107.800    276.144  
 146    144    147      1       107.800    276.144  
 155    152    156      1       109.500    292.880  
 148    145    149      1       109.500    292.880  
 148    145    150      1       109.500    292.880  
 69    67    70      1       120.000    585.760  
 149    145    150      1       107.800    276.144  
 139    137    140      1       107.800    276.144  
 159    158    161      1       107.800    276.144  
 153    151    154      1       107.800    276.144  
 37    39    42      1       120.000    585.760  
 39    42    162      1       111.000    627.600  
 42    162    163      1       109.500    418.400  
 42    162    164      1       109.500    292.880  
 42    162    165      1       109.500    292.880  
 162    163    166      1       109.500    418.400  
 162    163    167      1       110.700    313.800  
 162    163    168      1       110.700    313.800  
 163    166    169      1       109.500    502.080  
 166    169    170      1       109.500    418.400  
 166    169    171      1       109.500    292.880  
 166    169    172      1       109.500    292.880  
 169    170    173      1       109.500    418.400  
 169    170    174      1       110.700    313.800  
 169    170    175      1       110.700    313.800  
 170    173    176      1       109.500    502.080  
 173    176    177      1       109.500    418.400  
 173    176    178      1       109.500    292.880  
 173    176    179      1       109.500    292.880  
 176    177    180      1       109.500    418.400  
 176    177    181      1       110.700    313.800  
 176    177    182      1       110.700    313.800  
 177    180    183      1       109.500    502.080  
 180    183    184      1       109.500    292.880  
 180    183    185      1       109.500    292.880  
 180    183    186      1       109.500    292.880  
 170    169    171      1       110.700    313.800  
 163    162    165      1       110.700    313.800  
 181    177    182      1       107.800    276.144  
 166    163    167      1       109.500    292.880  
 177    176    179      1       110.700    313.800  
 166    163    168      1       109.500    292.880  
 167    163    168      1       107.800    276.144  
 184    183    185      1       107.800    276.144  
 170    169    172      1       110.700    313.800  
 163    162    164      1       110.700    313.800  
 180    177    182      1       109.500    292.880  
 177    176    178      1       110.700    313.800  
 185    183    186      1       107.800    276.144  
 171    169    172      1       107.800    276.144  
 180    177    181      1       109.500    292.880  
 173    170    174      1       109.500    292.880  
 173    170    175      1       109.500    292.880  
 41    39    42      1       120.000    585.760  
 174    170    175      1       107.800    276.144  
 164    162    165      1       107.800    276.144  
 184    183    186      1       107.800    276.144  
 178    176    179      1       107.800    276.144  
 18    16    19      1       120.000    585.760  
 16    19    187      1       111.000    627.600  
 19    187    188      1       109.500    418.400  
 19    187    189      1       109.500    292.880  
 19    187    190      1       109.500    292.880  
 187    188    191      1       109.500    418.400  
 187    188    192      1       110.700    313.800  
 187    188    193      1       110.700    313.800  
 188    191    194      1       109.500    502.080  
 191    194    195      1       109.500    418.400  
 191    194    196      1       109.500    292.880  
 191    194    197      1       109.500    292.880  
 194    195    198      1       109.500    418.400  
 194    195    199      1       110.700    313.800  
 194    195    200      1       110.700    313.800  
 195    198    201      1       109.500    502.080  
 198    201    202      1       109.500    418.400  
 198    201    203      1       109.500    292.880  
 198    201    204      1       109.500    292.880  
 201    202    205      1       109.500    418.400  
 201    202    206      1       110.700    313.800  
 201    202    207      1       110.700    313.800  
 202    205    208      1       109.500    502.080  
 205    208    209      1       109.500    292.880  
 205    208    210      1       109.500    292.880  
 205    208    211      1       109.500    292.880  
 195    194    196      1       110.700    313.800  
 188    187    190      1       110.700    313.800  
 206    202    207      1       107.800    276.144  
 191    188    192      1       109.500    292.880  
 202    201    204      1       110.700    313.800  
 191    188    193      1       109.500    292.880  
 192    188    193      1       107.800    276.144  
 209    208    210      1       107.800    276.144  
 195    194    197      1       110.700    313.800  
 188    187    189      1       110.700    313.800  
 205    202    207      1       109.500    292.880  
 202    201    203      1       110.700    313.800  
 210    208    211      1       107.800    276.144  
 196    194    197      1       107.800    276.144  
 205    202    206      1       109.500    292.880  
 198    195    199      1       109.500    292.880  
 198    195    200      1       109.500    292.880  
 15    16    19      1       120.000    585.760  
 199    195    200      1       107.800    276.144  
 189    187    190      1       107.800    276.144  
 209    208    211      1       107.800    276.144  
 203    201    204      1       107.800    276.144  
 9    11    14      1       120.000    585.760  
 11    14    212      1       111.000    627.600  
 14    212    213      1       109.500    418.400  
 14    212    214      1       109.500    292.880  
 14    212    215      1       109.500    292.880  
 212    213    216      1       109.500    418.400  
 212    213    217      1       110.700    313.800  
 212    213    218      1       110.700    313.800  
 213    216    219      1       109.500    502.080  
 216    219    220      1       109.500    418.400  
 216    219    221      1       109.500    292.880  
 216    219    222      1       109.500    292.880  
 219    220    223      1       109.500    418.400  
 219    220    224      1       110.700    313.800  
 219    220    225      1       110.700    313.800  
 220    223    226      1       109.500    502.080  
 223    226    227      1       109.500    418.400  
 223    226    228      1       109.500    292.880  
 223    226    229      1       109.500    292.880  
 226    227    230      1       109.500    418.400  
 226    227    231      1       110.700    313.800  
 226    227    232      1       110.700    313.800  
 227    230    233      1       109.500    502.080  
 230    233    234      1       109.500    292.880  
 230    233    235      1       109.500    292.880  
 230    233    236      1       109.500    292.880  
 220    219    221      1       110.700    313.800  
 213    212    215      1       110.700    313.800  
 231    227    232      1       107.800    276.144  
 216    213    217      1       109.500    292.880  
 227    226    229      1       110.700    313.800  
 216    213    218      1       109.500    292.880  
 217    213    218      1       107.800    276.144  
 234    233    235      1       107.800    276.144  
 220    219    222      1       110.700    313.800  
 213    212    214      1       110.700    313.800  
 230    227    232      1       109.500    292.880  
 227    226    228      1       110.700    313.800  
 235    233    236      1       107.800    276.144  
 221    219    222      1       107.800    276.144  
 230    227    231      1       109.500    292.880  
 223    220    224      1       109.500    292.880  
 223    220    225      1       109.500    292.880  
 13    11    14      1       120.000    585.760  
 224    220    225      1       107.800    276.144  
 214    212    215      1       107.800    276.144  
 234    233    236      1       107.800    276.144  
 228    226    229      1       107.800    276.144  
 
[ dihedrals ]
;  PROPER DIHEDRAL ANGLES

;  ai    aj   ak   al funct      c0       c1      c2      c3       c4     c5

 46    44    43    41      3       30.334    0.000    -30.334    -0.000    -0.000    0.000             
 47    44    43    41      3       9.079    0.000    -9.079    -0.000    -0.000    0.000             
 48    46    44    43      3       30.334    0.000    -30.334    -0.000    -0.000    0.000             
 50    48    46    44      3       30.334    0.000    -30.334    -0.000    -0.000    0.000             
 51    50    48    46      3       30.334    0.000    -30.334    -0.000    -0.000    0.000             
 52    50    48    46      3       30.334    0.000    -30.334    -0.000    -0.000    0.000             
 53    51    50    48      3       30.334    0.000    -30.334    -0.000    -0.000    0.000             
 55    53    51    50      3       30.334    0.000    -30.334    -0.000    -0.000    0.000             
 57    55    53    51      3       30.334    0.000    -30.334    -0.000    -0.000    0.000             
 58    57    55    53      3       30.334    0.000    -30.334    -0.000    -0.000    0.000             
 59    57    55    53      3       30.334    0.000    -30.334    -0.000    -0.000    0.000             
 60    58    57    55      3       30.334    0.000    -30.334    -0.000    -0.000    0.000             
 62    60    58    57      3       30.334    0.000    -30.334    -0.000    -0.000    0.000             
 64    62    60    58      3       30.334    0.000    -30.334    -0.000    -0.000    0.000             
 65    64    62    60      3       30.334    0.000    -30.334    -0.000    -0.000    0.000             
 66    64    62    60      3       30.334    0.000    -30.334    -0.000    -0.000    0.000             
 67    65    64    62      3       30.334    0.000    -30.334    -0.000    -0.000    0.000             
 69    67    65    64      3       30.334    0.000    -30.334    -0.000    -0.000    0.000             
 70    67    65    64      3       9.079    0.000    -9.079    -0.000    -0.000    0.000             
 71    69    67    65      3       30.334    0.000    -30.334    -0.000    -0.000    0.000             
 72    71    69    67      3       30.334    0.000    -30.334    -0.000    -0.000    0.000             
 73    71    69    67      3       30.334    0.000    -30.334    -0.000    -0.000    0.000             
 74    72    71    69      3       30.334    0.000    -30.334    -0.000    -0.000    0.000             
 75    72    71    69      3       9.079    0.000    -9.079    -0.000    -0.000    0.000             
 76    74    72    71      3       30.334    0.000    -30.334    -0.000    -0.000    0.000             
 78    76    74    72      3       30.334    0.000    -30.334    -0.000    -0.000    0.000             
 79    78    76    74      3       30.334    0.000    -30.334    -0.000    -0.000    0.000             
 80    78    76    74      3       30.334    0.000    -30.334    -0.000    -0.000    0.000             
 81    79    78    76      3       30.334    0.000    -30.334    -0.000    -0.000    0.000             
 83    80    78    76      3       30.334    0.000    -30.334    -0.000    -0.000    0.000             
 38    41    43    44      3       0.000    0.000    0.000    0.000    0.000    0.000             
 39    41    43    44      3       0.000    0.000    0.000    0.000    0.000    0.000             
 42    39    41    43      3       9.079    0.000    -9.079    -0.000    -0.000    0.000             
 36    38    41    43      3       30.334    0.000    -30.334    -0.000    -0.000    0.000             
 37    36    38    41      3       30.334    0.000    -30.334    -0.000    -0.000    0.000             
 34    36    38    41      3       30.334    0.000    -30.334    -0.000    -0.000    0.000             
 31    34    36    38      3       30.334    0.000    -30.334    -0.000    -0.000    0.000             
 32    34    36    38      3       30.334    0.000    -30.334    -0.000    -0.000    0.000             
 29    31    34    36      3       30.334    0.000    -30.334    -0.000    -0.000    0.000             
 30    29    31    34      3       30.334    0.000    -30.334    -0.000    -0.000    0.000             
 27    29    31    34      3       30.334    0.000    -30.334    -0.000    -0.000    0.000             
 24    27    29    31      3       30.334    0.000    -30.334    -0.000    -0.000    0.000             
 25    27    29    31      3       30.334    0.000    -30.334    -0.000    -0.000    0.000             
 22    24    27    29      3       30.334    0.000    -30.334    -0.000    -0.000    0.000             
 23    22    24    27      3       30.334    0.000    -30.334    -0.000    -0.000    0.000             
 20    22    24    27      3       30.334    0.000    -30.334    -0.000    -0.000    0.000             
 17    20    22    24      3       30.334    0.000    -30.334    -0.000    -0.000    0.000             
 18    20    22    24      3       30.334    0.000    -30.334    -0.000    -0.000    0.000             
 15    17    20    22      3       30.334    0.000    -30.334    -0.000    -0.000    0.000             
 16    15    17    20      3       30.334    0.000    -30.334    -0.000    -0.000    0.000             
 19    16    15    17      3       9.079    0.000    -9.079    -0.000    -0.000    0.000             
 13    15    17    20      3       30.334    0.000    -30.334    -0.000    -0.000    0.000             
 10    13    15    17      3       30.334    0.000    -30.334    -0.000    -0.000    0.000             
 11    13    15    17      3       30.334    0.000    -30.334    -0.000    -0.000    0.000             
 14    11    13    15      3       9.079    0.000    -9.079    -0.000    -0.000    0.000             
 8    10    13    15      3       30.334    0.000    -30.334    -0.000    -0.000    0.000             
 9    8    10    13      3       30.334    0.000    -30.334    -0.000    -0.000    0.000             
 6    8    10    13      3       30.334    0.000    -30.334    -0.000    -0.000    0.000             
 3    6    8    10      3       30.334    0.000    -30.334    -0.000    -0.000    0.000             
 4    6    8    10      3       30.334    0.000    -30.334    -0.000    -0.000    0.000             
 1    3    6    8      3       30.334    0.000    -30.334    -0.000    -0.000    0.000             
 2    1    3    6      3       30.334    0.000    -30.334    -0.000    -0.000    0.000             
 5    2    1    3      3       44.978    0.000    -44.978    -0.000    -0.000    0.000             
 7    4    6    8      3       30.334    0.000    -30.334    -0.000    -0.000    0.000             
 12    9    8    10      3       30.334    0.000    -30.334    -0.000    -0.000    0.000             
 21    18    20    22      3       30.334    0.000    -30.334    -0.000    -0.000    0.000             
 26    23    22    24      3       30.334    0.000    -30.334    -0.000    -0.000    0.000             
 28    25    27    29      3       30.334    0.000    -30.334    -0.000    -0.000    0.000             
 33    30    29    31      3       30.334    0.000    -30.334    -0.000    -0.000    0.000             
 35    32    34    36      3       30.334    0.000    -30.334    -0.000    -0.000    0.000             
 40    37    36    38      3       30.334    0.000    -30.334    -0.000    -0.000    0.000             
 49    46    44    43      3       30.334    0.000    -30.334    -0.000    -0.000    0.000             
 54    51    50    48      3       30.334    0.000    -30.334    -0.000    -0.000    0.000             
 56    53    51    50      3       30.334    0.000    -30.334    -0.000    -0.000    0.000             
 61    58    57    55      3       30.334    0.000    -30.334    -0.000    -0.000    0.000             
 63    60    58    57      3       30.334    0.000    -30.334    -0.000    -0.000    0.000             
 68    65    64    62      3       30.334    0.000    -30.334    -0.000    -0.000    0.000             
 77    74    72    71      3       30.334    0.000    -30.334    -0.000    -0.000    0.000             
 82    79    78    76      3       30.334    0.000    -30.334    -0.000    -0.000    0.000             
 84    81    79    78      3       30.334    0.000    -30.334    -0.000    -0.000    0.000             
 85    1    3    6      3       30.334    0.000    -30.334    -0.000    -0.000    0.000             
 86    83    80    78      3       30.334    0.000    -30.334    -0.000    -0.000    0.000             
 48    45    43    41      3       30.334    0.000    -30.334    -0.000    -0.000    0.000             
 48    45    43    44      3       30.334    0.000    -30.334    -0.000    -0.000    0.000             
 38    41    43    45      3       0.000    0.000    0.000    0.000    0.000    0.000             
 39    41    43    45      3       0.000    0.000    0.000    0.000    0.000    0.000             
 46    44    43    45      3       30.334    0.000    -30.334    -0.000    -0.000    0.000             
 47    44    43    45      3       9.079    0.000    -9.079    -0.000    -0.000    0.000             
 48    46    44    47      3       9.079    0.000    -9.079    -0.000    -0.000    0.000             
 49    46    44    47      3       9.079    0.000    -9.079    -0.000    -0.000    0.000             
 49    46    48    50      3       30.334    0.000    -30.334    -0.000    -0.000    0.000             
 43    45    48    50      3       30.334    0.000    -30.334    -0.000    -0.000    0.000             
 45    48    50    51      3       30.334    0.000    -30.334    -0.000    -0.000    0.000             
 55    52    50    51      3       30.334    0.000    -30.334    -0.000    -0.000    0.000             
 45    48    50    52      3       30.334    0.000    -30.334    -0.000    -0.000    0.000             
 53    51    50    52      3       30.334    0.000    -30.334    -0.000    -0.000    0.000             
 54    51    50    52      3       30.334    0.000    -30.334    -0.000    -0.000    0.000             
 54    51    53    55      3       30.334    0.000    -30.334    -0.000    -0.000    0.000             
 48    50    52    55      3       30.334    0.000    -30.334    -0.000    -0.000    0.000             
 56    53    55    57      3       30.334    0.000    -30.334    -0.000    -0.000    0.000             
 50    52    55    57      3       30.334    0.000    -30.334    -0.000    -0.000    0.000             
 52    55    57    58      3       30.334    0.000    -30.334    -0.000    -0.000    0.000             
 62    59    57    58      3       30.334    0.000    -30.334    -0.000    -0.000    0.000             
 52    55    57    59      3       30.334    0.000    -30.334    -0.000    -0.000    0.000             
 60    58    57    59      3       30.334    0.000    -30.334    -0.000    -0.000    0.000             
 61    58    57    59      3       30.334    0.000    -30.334    -0.000    -0.000    0.000             
 61    58    60    62      3       30.334    0.000    -30.334    -0.000    -0.000    0.000             
 55    57    59    62      3       30.334    0.000    -30.334    -0.000    -0.000    0.000             
 63    60    62    64      3       30.334    0.000    -30.334    -0.000    -0.000    0.000             
 57    59    62    64      3       30.334    0.000    -30.334    -0.000    -0.000    0.000             
 59    62    64    65      3       30.334    0.000    -30.334    -0.000    -0.000    0.000             
 69    66    64    65      3       30.334    0.000    -30.334    -0.000    -0.000    0.000             
 59    62    64    66      3       30.334    0.000    -30.334    -0.000    -0.000    0.000             
 67    65    64    66      3       30.334    0.000    -30.334    -0.000    -0.000    0.000             
 68    65    64    66      3       30.334    0.000    -30.334    -0.000    -0.000    0.000             
 68    65    67    69      3       30.334    0.000    -30.334    -0.000    -0.000    0.000             
 62    64    66    69      3       30.334    0.000    -30.334    -0.000    -0.000    0.000             
 68    65    67    70      3       9.079    0.000    -9.079    -0.000    -0.000    0.000             
 66    69    67    70      3       9.079    0.000    -9.079    -0.000    -0.000    0.000             
 71    69    67    70      3       9.079    0.000    -9.079    -0.000    -0.000    0.000             
 64    66    69    71      3       30.334    0.000    -30.334    -0.000    -0.000    0.000             
 66    69    71    72      3       30.334    0.000    -30.334    -0.000    -0.000    0.000             
 76    73    71    72      3       30.334    0.000    -30.334    -0.000    -0.000    0.000             
 66    69    71    73      3       30.334    0.000    -30.334    -0.000    -0.000    0.000             
 74    72    71    73      3       30.334    0.000    -30.334    -0.000    -0.000    0.000             
 75    72    71    73      3       9.079    0.000    -9.079    -0.000    -0.000    0.000             
 76    74    72    75      3       9.079    0.000    -9.079    -0.000    -0.000    0.000             
 77    74    72    75      3       9.079    0.000    -9.079    -0.000    -0.000    0.000             
 69    71    73    76      3       30.334    0.000    -30.334    -0.000    -0.000    0.000             
 77    74    76    78      3       30.334    0.000    -30.334    -0.000    -0.000    0.000             
 71    73    76    78      3       30.334    0.000    -30.334    -0.000    -0.000    0.000             
 73    76    78    79      3       30.334    0.000    -30.334    -0.000    -0.000    0.000             
 83    80    78    79      3       30.334    0.000    -30.334    -0.000    -0.000    0.000             
 73    76    78    80      3       30.334    0.000    -30.334    -0.000    -0.000    0.000             
 81    79    78    80      3       30.334    0.000    -30.334    -0.000    -0.000    0.000             
 82    79    78    80      3       30.334    0.000    -30.334    -0.000    -0.000    0.000             
 78    79    81    83      3       30.334    0.000    -30.334    -0.000    -0.000    0.000             
 82    79    81    83      3       30.334    0.000    -30.334    -0.000    -0.000    0.000             
 42    39    41    38      3       9.079    0.000    -9.079    -0.000    -0.000    0.000             
 37    39    41    38      3       30.334    0.000    -30.334    -0.000    -0.000    0.000             
 36    38    41    39      3       30.334    0.000    -30.334    -0.000    -0.000    0.000             
 36    37    39    42      3       9.079    0.000    -9.079    -0.000    -0.000    0.000             
 40    37    39    42      3       9.079    0.000    -9.079    -0.000    -0.000    0.000             
 31    34    36    37      3       30.334    0.000    -30.334    -0.000    -0.000    0.000             
 32    34    36    37      3       30.334    0.000    -30.334    -0.000    -0.000    0.000             
 43    41    39    37      3       30.334    0.000    -30.334    -0.000    -0.000    0.000             
 39    37    36    34      3       30.334    0.000    -30.334    -0.000    -0.000    0.000             
 40    37    36    34      3       30.334    0.000    -30.334    -0.000    -0.000    0.000             
 30    32    34    31      3       30.334    0.000    -30.334    -0.000    -0.000    0.000             
 35    32    34    31      3       30.334    0.000    -30.334    -0.000    -0.000    0.000             
 29    31    34    32      3       30.334    0.000    -30.334    -0.000    -0.000    0.000             
 24    27    29    30      3       30.334    0.000    -30.334    -0.000    -0.000    0.000             
 25    27    29    30      3       30.334    0.000    -30.334    -0.000    -0.000    0.000             
 36    34    32    30      3       30.334    0.000    -30.334    -0.000    -0.000    0.000             
 32    30    29    27      3       30.334    0.000    -30.334    -0.000    -0.000    0.000             
 33    30    29    27      3       30.334    0.000    -30.334    -0.000    -0.000    0.000             
 23    25    27    24      3       30.334    0.000    -30.334    -0.000    -0.000    0.000             
 28    25    27    24      3       30.334    0.000    -30.334    -0.000    -0.000    0.000             
 22    24    27    25      3       30.334    0.000    -30.334    -0.000    -0.000    0.000             
 17    20    22    23      3       30.334    0.000    -30.334    -0.000    -0.000    0.000             
 18    20    22    23      3       30.334    0.000    -30.334    -0.000    -0.000    0.000             
 29    27    25    23      3       30.334    0.000    -30.334    -0.000    -0.000    0.000             
 25    23    22    20      3       30.334    0.000    -30.334    -0.000    -0.000    0.000             
 26    23    22    20      3       30.334    0.000    -30.334    -0.000    -0.000    0.000             
 16    18    20    17      3       30.334    0.000    -30.334    -0.000    -0.000    0.000             
 21    18    20    17      3       30.334    0.000    -30.334    -0.000    -0.000    0.000             
 15    17    20    18      3       30.334    0.000    -30.334    -0.000    -0.000    0.000             
 10    13    15    16      3       30.334    0.000    -30.334    -0.000    -0.000    0.000             
 11    13    15    16      3       30.334    0.000    -30.334    -0.000    -0.000    0.000             
 22    20    18    16      3       30.334    0.000    -30.334    -0.000    -0.000    0.000             
 13    15    16    19      3       9.079    0.000    -9.079    -0.000    -0.000    0.000             
 20    18    16    19      3       9.079    0.000    -9.079    -0.000    -0.000    0.000             
 21    18    16    19      3       9.079    0.000    -9.079    -0.000    -0.000    0.000             
 18    16    15    13      3       30.334    0.000    -30.334    -0.000    -0.000    0.000             
 14    11    13    10      3       9.079    0.000    -9.079    -0.000    -0.000    0.000             
 9    11    13    10      3       30.334    0.000    -30.334    -0.000    -0.000    0.000             
 8    10    13    11      3       30.334    0.000    -30.334    -0.000    -0.000    0.000             
 8    9    11    14      3       9.079    0.000    -9.079    -0.000    -0.000    0.000             
 12    9    11    14      3       9.079    0.000    -9.079    -0.000    -0.000    0.000             
 3    6    8    9      3       30.334    0.000    -30.334    -0.000    -0.000    0.000             
 4    6    8    9      3       30.334    0.000    -30.334    -0.000    -0.000    0.000             
 15    13    11    9      3       30.334    0.000    -30.334    -0.000    -0.000    0.000             
 11    9    8    6      3       30.334    0.000    -30.334    -0.000    -0.000    0.000             
 12    9    8    6      3       30.334    0.000    -30.334    -0.000    -0.000    0.000             
 2    4    6    3      3       30.334    0.000    -30.334    -0.000    -0.000    0.000             
 7    4    6    3      3       30.334    0.000    -30.334    -0.000    -0.000    0.000             
 1    3    6    4      3       30.334    0.000    -30.334    -0.000    -0.000    0.000             
 8    6    4    2      3       30.334    0.000    -30.334    -0.000    -0.000    0.000             
 85    1    2    5      3       30.334    0.000    -30.334    -0.000    -0.000    0.000             
 6    4    2    5      3       30.334    0.000    -30.334    -0.000    -0.000    0.000             
 7    4    2    5      3       30.334    0.000    -30.334    -0.000    -0.000    0.000             
 1    2    4    7      3       30.334    0.000    -30.334    -0.000    -0.000    0.000             
 13    11    9    12      3       30.334    0.000    -30.334    -0.000    -0.000    0.000             
 15    16    18    21      3       30.334    0.000    -30.334    -0.000    -0.000    0.000             
 27    25    23    26      3       30.334    0.000    -30.334    -0.000    -0.000    0.000             
 28    25    23    26      3       30.334    0.000    -30.334    -0.000    -0.000    0.000             
 22    23    25    28      3       30.334    0.000    -30.334    -0.000    -0.000    0.000             
 34    32    30    33      3       30.334    0.000    -30.334    -0.000    -0.000    0.000             
 35    32    30    33      3       30.334    0.000    -30.334    -0.000    -0.000    0.000             
 29    30    32    35      3       30.334    0.000    -30.334    -0.000    -0.000    0.000             
 41    39    37    40      3       30.334    0.000    -30.334    -0.000    -0.000    0.000             
 45    48    46    49      3       30.334    0.000    -30.334    -0.000    -0.000    0.000             
 56    53    51    54      3       30.334    0.000    -30.334    -0.000    -0.000    0.000             
 52    55    53    56      3       30.334    0.000    -30.334    -0.000    -0.000    0.000             
 63    60    58    61      3       30.334    0.000    -30.334    -0.000    -0.000    0.000             
 59    62    60    63      3       30.334    0.000    -30.334    -0.000    -0.000    0.000             
 73    76    74    77      3       30.334    0.000    -30.334    -0.000    -0.000    0.000             
 84    81    79    82      3       30.334    0.000    -30.334    -0.000    -0.000    0.000             
 80    83    81    84      3       44.978    0.000    -44.978    -0.000    -0.000    0.000             
 86    83    81    84      3       30.334    0.000    -30.334    -0.000    -0.000    0.000             
 4    2    1    85      3       30.334    0.000    -30.334    -0.000    -0.000    0.000             
 79    81    83    86      3       30.334    0.000    -30.334    -0.000    -0.000    0.000             
 44    46    48    45      3       30.334    0.000    -30.334    -0.000    -0.000    0.000             
 43    45    48    46      3       30.334    0.000    -30.334    -0.000    -0.000    0.000             
 51    53    55    52      3       30.334    0.000    -30.334    -0.000    -0.000    0.000             
 50    52    55    53      3       30.334    0.000    -30.334    -0.000    -0.000    0.000             
 58    60    62    59      3       30.334    0.000    -30.334    -0.000    -0.000    0.000             
 57    59    62    60      3       30.334    0.000    -30.334    -0.000    -0.000    0.000             
 65    67    69    66      3       30.334    0.000    -30.334    -0.000    -0.000    0.000             
 64    66    69    67      3       30.334    0.000    -30.334    -0.000    -0.000    0.000             
 72    74    76    73      3       30.334    0.000    -30.334    -0.000    -0.000    0.000             
 71    73    76    74      3       30.334    0.000    -30.334    -0.000    -0.000    0.000             
 78    80    83    81      3       30.334    0.000    -30.334    -0.000    -0.000    0.000             
 79    81    83    80      3       30.334    0.000    -30.334    -0.000    -0.000    0.000             
 38    36    37    39      3       30.334    0.000    -30.334    -0.000    -0.000    0.000             
 41    39    37    36      3       30.334    0.000    -30.334    -0.000    -0.000    0.000             
 31    29    30    32      3       30.334    0.000    -30.334    -0.000    -0.000    0.000             
 34    32    30    29      3       30.334    0.000    -30.334    -0.000    -0.000    0.000             
 24    22    23    25      3       30.334    0.000    -30.334    -0.000    -0.000    0.000             
 27    25    23    22      3       30.334    0.000    -30.334    -0.000    -0.000    0.000             
 17    15    16    18      3       30.334    0.000    -30.334    -0.000    -0.000    0.000             
 20    18    16    15      3       30.334    0.000    -30.334    -0.000    -0.000    0.000             
 10    8    9    11      3       30.334    0.000    -30.334    -0.000    -0.000    0.000             
 13    11    9    8      3       30.334    0.000    -30.334    -0.000    -0.000    0.000             
 3    1    2    4      3       30.334    0.000    -30.334    -0.000    -0.000    0.000             
 6    4    2    1      3       30.334    0.000    -30.334    -0.000    -0.000    0.000             
 88    87    75    72      3       1.749336    17.711244    -2.824452    -30.455570    10.061197    0.958068  
 102    101    98    95      3       1.749336    17.711244    -2.824452    -30.455570    10.061197    0.958068  
 95    94    91    88      3       1.749336    17.711244    -2.824452    -30.455570    10.061197    0.958068  
 87    75    72    74      3       1.715    2.845    1.046    -5.607    -0.000    0.000  
 87    75    72    71      3       1.715    2.845    1.046    -5.607    -0.000    0.000  
 108    105    102    101      3       1.749336    17.711244    -2.824452    -30.455570    10.061197    0.958068  
 94    91    88    87      3       1.749336    17.711244    -2.824452    -30.455570    10.061197    0.958068  
 101    98    95    94      3       1.749336    17.711244    -2.824452    -30.455570    10.061197    0.958068  
 94    91    88    93      3       0.000000    0.000000    0.000000    0.000000    0.000000    0.000000  
 108    105    102    107      3       0.000000    0.000000    0.000000    0.000000    0.000000    0.000000  
 101    98    95    99      3       0.000000    0.000000    0.000000    0.000000    0.000000    0.000000  
 101    98    95    100      3       0.000000    0.000000    0.000000    0.000000    0.000000    0.000000  
 94    91    88    92      3       0.000000    0.000000    0.000000    0.000000    0.000000    0.000000  
 108    105    102    106      3       0.000000    0.000000    0.000000    0.000000    0.000000    0.000000  
 100    95    94    96      3       0.772830    15.09003    5.377169    -26.373934    4.616032    0.420126  
 93    88    87    89      3       0.772830    15.09003    5.377169    -26.373934    4.616032    0.420126  
 93    88    87    90      3       0.000000    0.000000    0.000000    0.000000    0.000000    0.000000  
 107    102    101    104      3       0.772830    15.09003    5.377169    -26.373934    4.616032    0.420126  
 92    88    87    89      3       0.000000    0.000000    0.000000    0.000000    0.000000    0.000000  
 99    95    94    96      3       0.000000    0.000000    0.000000    0.000000    0.000000    0.000000  
 92    88    87    90      3       0.000000    0.000000    0.000000    0.000000    0.000000    0.000000  
 107    102    101    103      3       0.000000    0.000000    0.000000    0.000000    0.000000    0.000000  
 106    102    101    104      3       0.000000    0.000000    0.000000    0.000000    0.000000    0.000000  
 100    95    94    97      3       0.000000    0.000000    0.000000    0.000000    0.000000    0.000000  
 106    102    101    103      3       0.000000    0.000000    0.000000    0.000000    0.000000    0.000000  
 99    95    94    97      3       0.000000    0.000000    0.000000    0.000000    0.000000    0.000000  
 92    88    87    75      3       0.000000    0.000000    0.000000    0.000000    0.000000    0.000000  
 107    102    101    98      3       0.000000    0.000000    0.000000    0.000000    0.000000    0.000000  
 106    102    101    98      3       0.000000    0.000000    0.000000    0.000000    0.000000    0.000000  
 99    95    94    91      3       0.000000    0.000000    0.000000    0.000000    0.000000    0.000000  
 93    88    87    75      3       0.000000    0.000000    0.000000    0.000000    0.000000    0.000000  
 100    95    94    91      3       0.000000    0.000000    0.000000    0.000000    0.000000    0.000000  
 89    87    75    72      3       0.000000    0.000000    0.000000    0.000000    0.000000    0.000000  
 90    87    75    72      3       0.000000    0.000000    0.000000    0.000000    0.000000    0.000000  
 97    94    91    88      3       0.000000    0.000000    0.000000    0.000000    0.000000    0.000000  
 103    101    98    95      3       0.000000    0.000000    0.000000    0.000000    0.000000    0.000000  
 104    101    98    95      3       0.000000    0.000000    0.000000    0.000000    0.000000    0.000000  
 109    108    105    102      3       1.590    4.770    0.000    -6.360    -0.000    0.000  
 110    108    105    102      3       1.590    4.770    0.000    -6.360    -0.000    0.000  
 111    108    105    102      3       1.590    4.770    0.000    -6.360    -0.000    0.000  
 96    94    91    88      3       0.000000    0.000000    0.000000    0.000000    0.000000    0.000000  
 75    72    74    76      3       9.079    0.000    -9.079    -0.000    -0.000    0.000  
 75    72    71    69      3       9.079    0.000    -9.079    -0.000    -0.000    0.000  
 75    72    74    77      3       9.079    0.000    -9.079    -0.000    -0.000    0.000  
 75    72    71    73      3       9.079    0.000    -9.079    -0.000    -0.000    0.000  
 105    102    101    104      3       0.000000    0.000000    0.000000    0.000000    0.000000    0.000000  
 91    88    87    90      3       0.000000    0.000000    0.000000    0.000000    0.000000    0.000000  
 98    95    94    97      3       0.000000    0.000000    0.000000    0.000000    0.000000    0.000000  
 91    88    87    89      3       0.000000    0.000000    0.000000    0.000000    0.000000    0.000000  
 105    102    101    103      3       0.000000    0.000000    0.000000    0.000000    0.000000    0.000000  
 98    95    94    96      3       0.000000    0.000000    0.000000    0.000000    0.000000    0.000000  
 105    102    101    98      3       0.000000    0.000000    0.000000    0.000000    0.000000    0.000000  
 91    88    87    75      3       0.000000    0.000000    0.000000    0.000000    0.000000    0.000000  
 98    95    94    91      3       0.000000    0.000000    0.000000    0.000000    0.000000    0.000000  
 113    112    47    44      3       1.749336    17.711244    -2.824452    -30.455570    10.061197    0.958068  
 127    126    123    120      3       1.749336    17.711244    -2.824452    -30.455570    10.061197    0.958068  
 120    119    116    113      3       1.749336    17.711244    -2.824452    -30.455570    10.061197    0.958068  
 112    47    44    46      3       1.715    2.845    1.046    -5.607    -0.000    0.000  
 112    47    44    43      3       1.715    2.845    1.046    -5.607    -0.000    0.000  
 133    130    127    126      3       1.749336    17.711244    -2.824452    -30.455570    10.061197    0.958068  
 119    116    113    112      3       1.749336    17.711244    -2.824452    -30.455570    10.061197    0.958068  
 126    123    120    119      3       1.749336    17.711244    -2.824452    -30.455570    10.061197    0.958068  
 119    116    113    118      3       0.000000    0.000000    0.000000    0.000000    0.000000    0.000000  
 133    130    127    132      3       0.000000    0.000000    0.000000    0.000000    0.000000    0.000000  
 126    123    120    124      3       0.000000    0.000000    0.000000    0.000000    0.000000    0.000000  
 126    123    120    125      3       0.000000    0.000000    0.000000    0.000000    0.000000    0.000000  
 119    116    113    117      3       0.000000    0.000000    0.000000    0.000000    0.000000    0.000000  
 133    130    127    131      3       0.000000    0.000000    0.000000    0.000000    0.000000    0.000000  
 125    120    119    121      3       0.772830    15.09003    5.377169    -26.373934    4.616032    0.420126  
 118    113    112    114      3       0.772830    15.09003    5.377169    -26.373934    4.616032    0.420126  
 118    113    112    115      3       0.000000    0.000000    0.000000    0.000000    0.000000    0.000000  
 132    127    126    129      3       0.772830    15.09003    5.377169    -26.373934    4.616032    0.420126  
 117    113    112    114      3       0.000000    0.000000    0.000000    0.000000    0.000000    0.000000  
 124    120    119    121      3       0.000000    0.000000    0.000000    0.000000    0.000000    0.000000  
 117    113    112    115      3       0.000000    0.000000    0.000000    0.000000    0.000000    0.000000  
 132    127    126    128      3       0.000000    0.000000    0.000000    0.000000    0.000000    0.000000  
 131    127    126    129      3       0.000000    0.000000    0.000000    0.000000    0.000000    0.000000  
 125    120    119    122      3       0.000000    0.000000    0.000000    0.000000    0.000000    0.000000  
 131    127    126    128      3       0.000000    0.000000    0.000000    0.000000    0.000000    0.000000  
 124    120    119    122      3       0.000000    0.000000    0.000000    0.000000    0.000000    0.000000  
 117    113    112    47      3       0.000000    0.000000    0.000000    0.000000    0.000000    0.000000  
 132    127    126    123      3       0.000000    0.000000    0.000000    0.000000    0.000000    0.000000  
 131    127    126    123      3       0.000000    0.000000    0.000000    0.000000    0.000000    0.000000  
 124    120    119    116      3       0.000000    0.000000    0.000000    0.000000    0.000000    0.000000  
 118    113    112    47      3       0.000000    0.000000    0.000000    0.000000    0.000000    0.000000  
 125    120    119    116      3       0.000000    0.000000    0.000000    0.000000    0.000000    0.000000  
 114    112    47    44      3       0.000000    0.000000    0.000000    0.000000    0.000000    0.000000  
 115    112    47    44      3       0.000000    0.000000    0.000000    0.000000    0.000000    0.000000  
 122    119    116    113      3       0.000000    0.000000    0.000000    0.000000    0.000000    0.000000  
 128    126    123    120      3       0.000000    0.000000    0.000000    0.000000    0.000000    0.000000  
 129    126    123    120      3       0.000000    0.000000    0.000000    0.000000    0.000000    0.000000  
 134    133    130    127      3       1.590    4.770    0.000    -6.360    -0.000    0.000  
 135    133    130    127      3       1.590    4.770    0.000    -6.360    -0.000    0.000  
 136    133    130    127      3       1.590    4.770    0.000    -6.360    -0.000    0.000  
 121    119    116    113      3       0.000000    0.000000    0.000000    0.000000    0.000000    0.000000  
 47    44    46    48      3       9.079    0.000    -9.079    -0.000    -0.000    0.000  
 47    44    43    41      3       9.079    0.000    -9.079    -0.000    -0.000    0.000  
 47    44    46    49      3       9.079    0.000    -9.079    -0.000    -0.000    0.000  
 47    44    43    45      3       9.079    0.000    -9.079    -0.000    -0.000    0.000  
 130    127    126    129      3       0.000000    0.000000    0.000000    0.000000    0.000000    0.000000  
 116    113    112    115      3       0.000000    0.000000    0.000000    0.000000    0.000000    0.000000  
 123    120    119    122      3       0.000000    0.000000    0.000000    0.000000    0.000000    0.000000  
 116    113    112    114      3       0.000000    0.000000    0.000000    0.000000    0.000000    0.000000  
 130    127    126    128      3       0.000000    0.000000    0.000000    0.000000    0.000000    0.000000  
 123    120    119    121      3       0.000000    0.000000    0.000000    0.000000    0.000000    0.000000  
 130    127    126    123      3       0.000000    0.000000    0.000000    0.000000    0.000000    0.000000  
 116    113    112    47      3       0.000000    0.000000    0.000000    0.000000    0.000000    0.000000  
 123    120    119    116      3       0.000000    0.000000    0.000000    0.000000    0.000000    0.000000  
 138    137    70    67      3       1.749336    17.711244    -2.824452    -30.455570    10.061197    0.958068  
 152    151    148    145      3       1.749336    17.711244    -2.824452    -30.455570    10.061197    0.958068  
 145    144    141    138      3       1.749336    17.711244    -2.824452    -30.455570    10.061197    0.958068  
 137    70    67    65      3       1.715    2.845    1.046    -5.607    -0.000    0.000  
 137    70    67    69      3       1.715    2.845    1.046    -5.607    -0.000    0.000  
 158    155    152    151      3       1.749336    17.711244    -2.824452    -30.455570    10.061197    0.958068  
 144    141    138    137      3       1.749336    17.711244    -2.824452    -30.455570    10.061197    0.958068  
 151    148    145    144      3       1.749336    17.711244    -2.824452    -30.455570    10.061197    0.958068  
 144    141    138    143      3       0.000000    0.000000    0.000000    0.000000    0.000000    0.000000  
 158    155    152    157      3       0.000000    0.000000    0.000000    0.000000    0.000000    0.000000  
 151    148    145    149      3       0.000000    0.000000    0.000000    0.000000    0.000000    0.000000  
 151    148    145    150      3       0.000000    0.000000    0.000000    0.000000    0.000000    0.000000  
 144    141    138    142      3       0.000000    0.000000    0.000000    0.000000    0.000000    0.000000  
 158    155    152    156      3       0.000000    0.000000    0.000000    0.000000    0.000000    0.000000  
 150    145    144    146      3       0.772830    15.09003    5.377169    -26.373934    4.616032    0.420126  
 143    138    137    139      3       0.772830    15.09003    5.377169    -26.373934    4.616032    0.420126  
 143    138    137    140      3       0.000000    0.000000    0.000000    0.000000    0.000000    0.000000  
 157    152    151    154      3       0.772830    15.09003    5.377169    -26.373934    4.616032    0.420126  
 142    138    137    139      3       0.000000    0.000000    0.000000    0.000000    0.000000    0.000000  
 149    145    144    146      3       0.000000    0.000000    0.000000    0.000000    0.000000    0.000000  
 142    138    137    140      3       0.000000    0.000000    0.000000    0.000000    0.000000    0.000000  
 157    152    151    153      3       0.000000    0.000000    0.000000    0.000000    0.000000    0.000000  
 156    152    151    154      3       0.000000    0.000000    0.000000    0.000000    0.000000    0.000000  
 150    145    144    147      3       0.000000    0.000000    0.000000    0.000000    0.000000    0.000000  
 156    152    151    153      3       0.000000    0.000000    0.000000    0.000000    0.000000    0.000000  
 149    145    144    147      3       0.000000    0.000000    0.000000    0.000000    0.000000    0.000000  
 142    138    137    70      3       0.000000    0.000000    0.000000    0.000000    0.000000    0.000000  
 157    152    151    148      3       0.000000    0.000000    0.000000    0.000000    0.000000    0.000000  
 156    152    151    148      3       0.000000    0.000000    0.000000    0.000000    0.000000    0.000000  
 149    145    144    141      3       0.000000    0.000000    0.000000    0.000000    0.000000    0.000000  
 143    138    137    70      3       0.000000    0.000000    0.000000    0.000000    0.000000    0.000000  
 150    145    144    141      3       0.000000    0.000000    0.000000    0.000000    0.000000    0.000000  
 139    137    70    67      3       0.000000    0.000000    0.000000    0.000000    0.000000    0.000000  
 140    137    70    67      3       0.000000    0.000000    0.000000    0.000000    0.000000    0.000000  
 147    144    141    138      3       0.000000    0.000000    0.000000    0.000000    0.000000    0.000000  
 153    151    148    145      3       0.000000    0.000000    0.000000    0.000000    0.000000    0.000000  
 154    151    148    145      3       0.000000    0.000000    0.000000    0.000000    0.000000    0.000000  
 159    158    155    152      3       1.590    4.770    0.000    -6.360    -0.000    0.000  
 160    158    155    152      3       1.590    4.770    0.000    -6.360    -0.000    0.000  
 161    158    155    152      3       1.590    4.770    0.000    -6.360    -0.000    0.000  
 146    144    141    138      3       0.000000    0.000000    0.000000    0.000000    0.000000    0.000000  
 70    67    65    64      3       9.079    0.000    -9.079    -0.000    -0.000    0.000  
 70    67    69    71      3       9.079    0.000    -9.079    -0.000    -0.000    0.000  
 70    67    65    68      3       9.079    0.000    -9.079    -0.000    -0.000    0.000  
 70    67    69    66      3       9.079    0.000    -9.079    -0.000    -0.000    0.000  
 155    152    151    154      3       0.000000    0.000000    0.000000    0.000000    0.000000    0.000000  
 141    138    137    140      3       0.000000    0.000000    0.000000    0.000000    0.000000    0.000000  
 148    145    144    147      3       0.000000    0.000000    0.000000    0.000000    0.000000    0.000000  
 141    138    137    139      3       0.000000    0.000000    0.000000    0.000000    0.000000    0.000000  
 155    152    151    153      3       0.000000    0.000000    0.000000    0.000000    0.000000    0.000000  
 148    145    144    146      3       0.000000    0.000000    0.000000    0.000000    0.000000    0.000000  
 155    152    151    148      3       0.000000    0.000000    0.000000    0.000000    0.000000    0.000000  
 141    138    137    70      3       0.000000    0.000000    0.000000    0.000000    0.000000    0.000000  
 148    145    144    141      3       0.000000    0.000000    0.000000    0.000000    0.000000    0.000000  
 163    162    42    39      3       1.749336    17.711244    -2.824452    -30.455570    10.061197    0.958068  
 177    176    173    170      3       1.749336    17.711244    -2.824452    -30.455570    10.061197    0.958068  
 170    169    166    163      3       1.749336    17.711244    -2.824452    -30.455570    10.061197    0.958068  
 162    42    39    37      3       1.715    2.845    1.046    -5.607    -0.000    0.000  
 162    42    39    41      3       1.715    2.845    1.046    -5.607    -0.000    0.000  
 183    180    177    176      3       1.749336    17.711244    -2.824452    -30.455570    10.061197    0.958068  
 169    166    163    162      3       1.749336    17.711244    -2.824452    -30.455570    10.061197    0.958068  
 176    173    170    169      3       1.749336    17.711244    -2.824452    -30.455570    10.061197    0.958068  
 169    166    163    168      3       0.000000    0.000000    0.000000    0.000000    0.000000    0.000000  
 183    180    177    182      3       0.000000    0.000000    0.000000    0.000000    0.000000    0.000000  
 176    173    170    174      3       0.000000    0.000000    0.000000    0.000000    0.000000    0.000000  
 176    173    170    175      3       0.000000    0.000000    0.000000    0.000000    0.000000    0.000000  
 169    166    163    167      3       0.000000    0.000000    0.000000    0.000000    0.000000    0.000000  
 183    180    177    181      3       0.000000    0.000000    0.000000    0.000000    0.000000    0.000000  
 175    170    169    171      3       0.772830    15.09003    5.377169    -26.373934    4.616032    0.420126  
 168    163    162    164      3       0.772830    15.09003    5.377169    -26.373934    4.616032    0.420126  
 168    163    162    165      3       0.000000    0.000000    0.000000    0.000000    0.000000    0.000000  
 182    177    176    179      3       0.772830    15.09003    5.377169    -26.373934    4.616032    0.420126  
 167    163    162    164      3       0.000000    0.000000    0.000000    0.000000    0.000000    0.000000  
 174    170    169    171      3       0.000000    0.000000    0.000000    0.000000    0.000000    0.000000  
 167    163    162    165      3       0.000000    0.000000    0.000000    0.000000    0.000000    0.000000  
 182    177    176    178      3       0.000000    0.000000    0.000000    0.000000    0.000000    0.000000  
 181    177    176    179      3       0.000000    0.000000    0.000000    0.000000    0.000000    0.000000  
 175    170    169    172      3       0.000000    0.000000    0.000000    0.000000    0.000000    0.000000  
 181    177    176    178      3       0.000000    0.000000    0.000000    0.000000    0.000000    0.000000  
 174    170    169    172      3       0.000000    0.000000    0.000000    0.000000    0.000000    0.000000  
 167    163    162    42      3       0.000000    0.000000    0.000000    0.000000    0.000000    0.000000  
 182    177    176    173      3       0.000000    0.000000    0.000000    0.000000    0.000000    0.000000  
 181    177    176    173      3       0.000000    0.000000    0.000000    0.000000    0.000000    0.000000  
 174    170    169    166      3       0.000000    0.000000    0.000000    0.000000    0.000000    0.000000  
 168    163    162    42      3       0.000000    0.000000    0.000000    0.000000    0.000000    0.000000  
 175    170    169    166      3       0.000000    0.000000    0.000000    0.000000    0.000000    0.000000  
 164    162    42    39      3       0.000000    0.000000    0.000000    0.000000    0.000000    0.000000  
 165    162    42    39      3       0.000000    0.000000    0.000000    0.000000    0.000000    0.000000  
 172    169    166    163      3       0.000000    0.000000    0.000000    0.000000    0.000000    0.000000  
 178    176    173    170      3       0.000000    0.000000    0.000000    0.000000    0.000000    0.000000  
 179    176    173    170      3       0.000000    0.000000    0.000000    0.000000    0.000000    0.000000  
 184    183    180    177      3       1.590    4.770    0.000    -6.360    -0.000    0.000  
 185    183    180    177      3       1.590    4.770    0.000    -6.360    -0.000    0.000  
 186    183    180    177      3       1.590    4.770    0.000    -6.360    -0.000    0.000  
 171    169    166    163      3       0.000000    0.000000    0.000000    0.000000    0.000000    0.000000  
 42    39    37    36      3       9.079    0.000    -9.079    -0.000    -0.000    0.000  
 42    39    41    43      3       9.079    0.000    -9.079    -0.000    -0.000    0.000  
 42    39    37    40      3       9.079    0.000    -9.079    -0.000    -0.000    0.000  
 42    39    41    38      3       9.079    0.000    -9.079    -0.000    -0.000    0.000  
 180    177    176    179      3       0.000000    0.000000    0.000000    0.000000    0.000000    0.000000  
 166    163    162    165      3       0.000000    0.000000    0.000000    0.000000    0.000000    0.000000  
 173    170    169    172      3       0.000000    0.000000    0.000000    0.000000    0.000000    0.000000  
 166    163    162    164      3       0.000000    0.000000    0.000000    0.000000    0.000000    0.000000  
 180    177    176    178      3       0.000000    0.000000    0.000000    0.000000    0.000000    0.000000  
 173    170    169    171      3       0.000000    0.000000    0.000000    0.000000    0.000000    0.000000  
 180    177    176    173      3       0.000000    0.000000    0.000000    0.000000    0.000000    0.000000  
 166    163    162    42      3       0.000000    0.000000    0.000000    0.000000    0.000000    0.000000  
 173    170    169    166      3       0.000000    0.000000    0.000000    0.000000    0.000000    0.000000  
 188    187    19    16      3       1.749336    17.711244    -2.824452    -30.455570    10.061197    0.958068  
 202    201    198    195      3       1.749336    17.711244    -2.824452    -30.455570    10.061197    0.958068  
 195    194    191    188      3       1.749336    17.711244    -2.824452    -30.455570    10.061197    0.958068  
 187    19    16    18      3       1.715    2.845    1.046    -5.607    -0.000    0.000  
 187    19    16    15      3       1.715    2.845    1.046    -5.607    -0.000    0.000  
 208    205    202    201      3       1.749336    17.711244    -2.824452    -30.455570    10.061197    0.958068  
 194    191    188    187      3       1.749336    17.711244    -2.824452    -30.455570    10.061197    0.958068  
 201    198    195    194      3       1.749336    17.711244    -2.824452    -30.455570    10.061197    0.958068  
 194    191    188    193      3       0.000000    0.000000    0.000000    0.000000    0.000000    0.000000  
 208    205    202    207      3       0.000000    0.000000    0.000000    0.000000    0.000000    0.000000  
 201    198    195    199      3       0.000000    0.000000    0.000000    0.000000    0.000000    0.000000  
 201    198    195    200      3       0.000000    0.000000    0.000000    0.000000    0.000000    0.000000  
 194    191    188    192      3       0.000000    0.000000    0.000000    0.000000    0.000000    0.000000  
 208    205    202    206      3       0.000000    0.000000    0.000000    0.000000    0.000000    0.000000  
 200    195    194    196      3       0.772830    15.09003    5.377169    -26.373934    4.616032    0.420126  
 193    188    187    189      3       0.772830    15.09003    5.377169    -26.373934    4.616032    0.420126  
 193    188    187    190      3       0.000000    0.000000    0.000000    0.000000    0.000000    0.000000  
 207    202    201    204      3       0.772830    15.09003    5.377169    -26.373934    4.616032    0.420126  
 192    188    187    189      3       0.000000    0.000000    0.000000    0.000000    0.000000    0.000000  
 199    195    194    196      3       0.000000    0.000000    0.000000    0.000000    0.000000    0.000000  
 192    188    187    190      3       0.000000    0.000000    0.000000    0.000000    0.000000    0.000000  
 207    202    201    203      3       0.000000    0.000000    0.000000    0.000000    0.000000    0.000000  
 206    202    201    204      3       0.000000    0.000000    0.000000    0.000000    0.000000    0.000000  
 200    195    194    197      3       0.000000    0.000000    0.000000    0.000000    0.000000    0.000000  
 206    202    201    203      3       0.000000    0.000000    0.000000    0.000000    0.000000    0.000000  
 199    195    194    197      3       0.000000    0.000000    0.000000    0.000000    0.000000    0.000000  
 192    188    187    19      3       0.000000    0.000000    0.000000    0.000000    0.000000    0.000000  
 207    202    201    198      3       0.000000    0.000000    0.000000    0.000000    0.000000    0.000000  
 206    202    201    198      3       0.000000    0.000000    0.000000    0.000000    0.000000    0.000000  
 199    195    194    191      3       0.000000    0.000000    0.000000    0.000000    0.000000    0.000000  
 193    188    187    19      3       0.000000    0.000000    0.000000    0.000000    0.000000    0.000000  
 200    195    194    191      3       0.000000    0.000000    0.000000    0.000000    0.000000    0.000000  
 189    187    19    16      3       0.000000    0.000000    0.000000    0.000000    0.000000    0.000000  
 190    187    19    16      3       0.000000    0.000000    0.000000    0.000000    0.000000    0.000000  
 197    194    191    188      3       0.000000    0.000000    0.000000    0.000000    0.000000    0.000000  
 203    201    198    195      3       0.000000    0.000000    0.000000    0.000000    0.000000    0.000000  
 204    201    198    195      3       0.000000    0.000000    0.000000    0.000000    0.000000    0.000000  
 209    208    205    202      3       1.590    4.770    0.000    -6.360    -0.000    0.000  
 210    208    205    202      3       1.590    4.770    0.000    -6.360    -0.000    0.000  
 211    208    205    202      3       1.590    4.770    0.000    -6.360    -0.000    0.000  
 196    194    191    188      3       0.000000    0.000000    0.000000    0.000000    0.000000    0.000000  
 19    16    18    20      3       9.079    0.000    -9.079    -0.000    -0.000    0.000  
 19    16    15    13      3       9.079    0.000    -9.079    -0.000    -0.000    0.000  
 19    16    18    21      3       9.079    0.000    -9.079    -0.000    -0.000    0.000  
 19    16    15    17      3       9.079    0.000    -9.079    -0.000    -0.000    0.000  
 205    202    201    204      3       0.000000    0.000000    0.000000    0.000000    0.000000    0.000000  
 191    188    187    190      3       0.000000    0.000000    0.000000    0.000000    0.000000    0.000000  
 198    195    194    197      3       0.000000    0.000000    0.000000    0.000000    0.000000    0.000000  
 191    188    187    189      3       0.000000    0.000000    0.000000    0.000000    0.000000    0.000000  
 205    202    201    203      3       0.000000    0.000000    0.000000    0.000000    0.000000    0.000000  
 198    195    194    196      3       0.000000    0.000000    0.000000    0.000000    0.000000    0.000000  
 205    202    201    198      3       0.000000    0.000000    0.000000    0.000000    0.000000    0.000000  
 191    188    187    19      3       0.000000    0.000000    0.000000    0.000000    0.000000    0.000000  
 198    195    194    191      3       0.000000    0.000000    0.000000    0.000000    0.000000    0.000000  
 213    212    14    11      3       1.749336    17.711244    -2.824452    -30.455570    10.061197    0.958068  
 227    226    223    220      3       1.749336    17.711244    -2.824452    -30.455570    10.061197    0.958068  
 220    219    216    213      3       1.749336    17.711244    -2.824452    -30.455570    10.061197    0.958068  
 212    14    11    9      3       1.715    2.845    1.046    -5.607    -0.000    0.000  
 212    14    11    13      3       1.715    2.845    1.046    -5.607    -0.000    0.000  
 233    230    227    226      3       1.749336    17.711244    -2.824452    -30.455570    10.061197    0.958068  
 219    216    213    212      3       1.749336    17.711244    -2.824452    -30.455570    10.061197    0.958068  
 226    223    220    219      3       1.749336    17.711244    -2.824452    -30.455570    10.061197    0.958068  
 219    216    213    218      3       0.000000    0.000000    0.000000    0.000000    0.000000    0.000000  
 233    230    227    232      3       0.000000    0.000000    0.000000    0.000000    0.000000    0.000000  
 226    223    220    224      3       0.000000    0.000000    0.000000    0.000000    0.000000    0.000000  
 226    223    220    225      3       0.000000    0.000000    0.000000    0.000000    0.000000    0.000000  
 219    216    213    217      3       0.000000    0.000000    0.000000    0.000000    0.000000    0.000000  
 233    230    227    231      3       0.000000    0.000000    0.000000    0.000000    0.000000    0.000000  
 225    220    219    221      3       0.772830    15.09003    5.377169    -26.373934    4.616032    0.420126  
 218    213    212    214      3       0.772830    15.09003    5.377169    -26.373934    4.616032    0.420126  
 218    213    212    215      3       0.000000    0.000000    0.000000    0.000000    0.000000    0.000000  
 232    227    226    229      3       0.772830    15.09003    5.377169    -26.373934    4.616032    0.420126  
 217    213    212    214      3       0.000000    0.000000    0.000000    0.000000    0.000000    0.000000  
 224    220    219    221      3       0.000000    0.000000    0.000000    0.000000    0.000000    0.000000  
 217    213    212    215      3       0.000000    0.000000    0.000000    0.000000    0.000000    0.000000  
 232    227    226    228      3       0.000000    0.000000    0.000000    0.000000    0.000000    0.000000  
 231    227    226    229      3       0.000000    0.000000    0.000000    0.000000    0.000000    0.000000  
 225    220    219    222      3       0.000000    0.000000    0.000000    0.000000    0.000000    0.000000  
 231    227    226    228      3       0.000000    0.000000    0.000000    0.000000    0.000000    0.000000  
 224    220    219    222      3       0.000000    0.000000    0.000000    0.000000    0.000000    0.000000  
 217    213    212    14      3       0.000000    0.000000    0.000000    0.000000    0.000000    0.000000  
 232    227    226    223      3       0.000000    0.000000    0.000000    0.000000    0.000000    0.000000  
 231    227    226    223      3       0.000000    0.000000    0.000000    0.000000    0.000000    0.000000  
 224    220    219    216      3       0.000000    0.000000    0.000000    0.000000    0.000000    0.000000  
 218    213    212    14      3       0.000000    0.000000    0.000000    0.000000    0.000000    0.000000  
 225    220    219    216      3       0.000000    0.000000    0.000000    0.000000    0.000000    0.000000  
 214    212    14    11      3       0.000000    0.000000    0.000000    0.000000    0.000000    0.000000  
 215    212    14    11      3       0.000000    0.000000    0.000000    0.000000    0.000000    0.000000  
 222    219    216    213      3       0.000000    0.000000    0.000000    0.000000    0.000000    0.000000  
 228    226    223    220      3       0.000000    0.000000    0.000000    0.000000    0.000000    0.000000  
 229    226    223    220      3       0.000000    0.000000    0.000000    0.000000    0.000000    0.000000  
 234    233    230    227      3       1.590    4.770    0.000    -6.360    -0.000    0.000  
 235    233    230    227      3       1.590    4.770    0.000    -6.360    -0.000    0.000  
 236    233    230    227      3       1.590    4.770    0.000    -6.360    -0.000    0.000  
 221    219    216    213      3       0.000000    0.000000    0.000000    0.000000    0.000000    0.000000  
 14    11    9    8      3       9.079    0.000    -9.079    -0.000    -0.000    0.000  
 14    11    13    15      3       9.079    0.000    -9.079    -0.000    -0.000    0.000  
 14    11    9    12      3       9.079    0.000    -9.079    -0.000    -0.000    0.000  
 14    11    13    10      3       9.079    0.000    -9.079    -0.000    -0.000    0.000  
 230    227    226    229      3       0.000000    0.000000    0.000000    0.000000    0.000000    0.000000  
 216    213    212    215      3       0.000000    0.000000    0.000000    0.000000    0.000000    0.000000  
 223    220    219    222      3       0.000000    0.000000    0.000000    0.000000    0.000000    0.000000  
 216    213    212    214      3       0.000000    0.000000    0.000000    0.000000    0.000000    0.000000  
 230    227    226    228      3       0.000000    0.000000    0.000000    0.000000    0.000000    0.000000  
 223    220    219    221      3       0.000000    0.000000    0.000000    0.000000    0.000000    0.000000  
 230    227    226    223      3       0.000000    0.000000    0.000000    0.000000    0.000000    0.000000  
 216    213    212    14      3       0.000000    0.000000    0.000000    0.000000    0.000000    0.000000  
 223    220    219    216      3       0.000000    0.000000    0.000000    0.000000    0.000000    0.000000  
 
[ dihedrals ]
;IMPROPER DIHEDRAL ANGLES

;  ai    aj   ak   al funct      c0       c1      c2      c3       c4     c5

 41    43    44    45      4       180.000    10.460    2             
 43    41    38    39      4       180.000    10.460    2             
 43    44    46    47      4       180.000    10.460    2             
 44    46    48    49      4       180.000    10.460    2             
 46    48    45    50      4       180.000    10.460    2             
 48    50    51    52      4       180.000    10.460    2             
 50    51    53    54      4       180.000    10.460    2             
 51    53    55    56      4       180.000    10.460    2             
 53    55    52    57      4       180.000    10.460    2             
 55    57    58    59      4       180.000    10.460    2             
 57    58    60    61      4       180.000    10.460    2             
 58    60    62    63      4       180.000    10.460    2             
 60    62    59    64      4       180.000    10.460    2             
 62    64    65    66      4       180.000    10.460    2             
 64    65    67    68      4       180.000    10.460    2             
 65    67    69    70      4       180.000    10.460    2             
 67    69    66    71      4       180.000    10.460    2             
 69    71    72    73      4       180.000    10.460    2             
 71    72    74    75      4       180.000    10.460    2             
 72    74    76    77      4       180.000    10.460    2             
 74    76    73    78      4       180.000    10.460    2             
 76    78    79    80      4       180.000    10.460    2             
 78    79    81    82      4       180.000    10.460    2             
 79    81    83    84      4       180.000    10.460    2             
 80    83    81    86      4       180.000    10.460    2             
 41    39    42    37      4       180.000    10.460    2             
 38    36    37    34      4       180.000    10.460    2             
 36    37    39    40      4       180.000    10.460    2             
 36    34    31    32      4       180.000    10.460    2             
 34    32    30    35      4       180.000    10.460    2             
 31    29    30    27      4       180.000    10.460    2             
 29    30    32    33      4       180.000    10.460    2             
 29    27    24    25      4       180.000    10.460    2             
 27    25    23    28      4       180.000    10.460    2             
 24    22    23    20      4       180.000    10.460    2             
 22    23    25    26      4       180.000    10.460    2             
 22    20    17    18      4       180.000    10.460    2             
 20    18    16    21      4       180.000    10.460    2             
 17    15    16    13      4       180.000    10.460    2             
 15    16    18    19      4       180.000    10.460    2             
 15    13    10    11      4       180.000    10.460    2             
 13    11    14    9      4       180.000    10.460    2             
 10    8    9    6      4       180.000    10.460    2             
 8    9    11    12      4       180.000    10.460    2             
 8    6    3    4      4       180.000    10.460    2             
 6    4    2    7      4       180.000    10.460    2             
 3    1    2    85      4       180.000    10.460    2             
 1    2    4    5      4       180.000    10.460    2             
 75    72    74    71      4       180.000    10.460    2  
 47    44    46    43      4       180.000    10.460    2  
 70    67    65    69      4       180.000    10.460    2  
 42    39    37    41      4       180.000    10.460    2  
 19    16    18    15      4       180.000    10.460    2  
 14    11    9    13      4       180.000    10.460    2  
 
[ pairs ]
;  ai    aj funct

 43    46      1                            
 43    48      1                            
 43    50      1                            
 43    42      1                            
 43    36      1                            
 43    37      1                            
 43    49      1                            
 41    46      1                            
 41    47      1                            
 41    48      1                            
 41    36      1                            
 41    37      1                            
 41    34      1                            
 41    40      1                            
 44    45      1                            
 44    48      1                            
 44    50      1                            
 44    38      1                            
 44    39      1                            
 45    46      1                            
 45    47      1                            
 45    51      1                            
 45    52      1                            
 45    38      1                            
 45    39      1                            
 45    49      1                            
 46    51      1                            
 46    52      1                            
 47    48      1                            
 47    49      1                            
 48    53      1                            
 48    55      1                            
 48    54      1                            
 50    53      1                            
 50    55      1                            
 50    57      1                            
 50    49      1                            
 50    56      1                            
 51    52      1                            
 51    55      1                            
 51    57      1                            
 52    53      1                            
 52    58      1                            
 52    59      1                            
 52    54      1                            
 52    56      1                            
 53    58      1                            
 53    59      1                            
 55    60      1                            
 55    62      1                            
 55    54      1                            
 55    61      1                            
 57    60      1                            
 57    62      1                            
 57    64      1                            
 57    56      1                            
 57    63      1                            
 58    59      1                            
 58    62      1                            
 58    64      1                            
 59    60      1                            
 59    65      1                            
 59    66      1                            
 59    61      1                            
 59    63      1                            
 60    65      1                            
 60    66      1                            
 62    67      1                            
 62    69      1                            
 62    61      1                            
 62    68      1                            
 64    67      1                            
 64    69      1                            
 64    70      1                            
 64    71      1                            
 64    63      1                            
 65    66      1                            
 65    69      1                            
 65    71      1                            
 66    67      1                            
 66    70      1                            
 66    72      1                            
 66    73      1                            
 66    68      1                            
 67    72      1                            
 67    73      1                            
 69    74      1                            
 69    75      1                            
 69    76      1                            
 69    68      1                            
 70    71      1                            
 70    68      1                            
 71    74      1                            
 71    76      1                            
 71    78      1                            
 71    77      1                            
 72    73      1                            
 72    76      1                            
 72    78      1                            
 73    74      1                            
 73    75      1                            
 73    79      1                            
 73    80      1                            
 73    77      1                            
 74    79      1                            
 74    80      1                            
 75    76      1                            
 75    77      1                            
 76    81      1                            
 76    83      1                            
 76    82      1                            
 78    81      1                            
 78    83      1                            
 78    77      1                            
 78    84      1                            
 78    86      1                            
 79    80      1                            
 79    83      1                            
 79    86      1                            
 80    81      1                            
 80    82      1                            
 80    84      1                            
 83    82      1                            
 38    39      1                            
 38    42      1                            
 38    37      1                            
 38    31      1                            
 38    32      1                            
 38    40      1                            
 39    36      1                            
 39    34      1                            
 42    36      1                            
 42    40      1                            
 36    29      1                            
 36    30      1                            
 36    35      1                            
 37    31      1                            
 37    32      1                            
 34    29      1                            
 34    30      1                            
 34    27      1                            
 34    33      1                            
 34    40      1                            
 31    32      1                            
 31    30      1                            
 31    24      1                            
 31    25      1                            
 31    33      1                            
 31    35      1                            
 32    29      1                            
 32    27      1                            
 29    22      1                            
 29    23      1                            
 29    28      1                            
 29    35      1                            
 30    24      1                            
 30    25      1                            
 27    22      1                            
 27    23      1                            
 27    20      1                            
 27    26      1                            
 27    33      1                            
 24    25      1                            
 24    23      1                            
 24    17      1                            
 24    18      1                            
 24    26      1                            
 24    28      1                            
 25    22      1                            
 25    20      1                            
 22    15      1                            
 22    16      1                            
 22    21      1                            
 22    28      1                            
 23    17      1                            
 23    18      1                            
 20    15      1                            
 20    16      1                            
 20    19      1                            
 20    13      1                            
 20    26      1                            
 17    18      1                            
 17    16      1                            
 17    19      1                            
 17    10      1                            
 17    11      1                            
 17    21      1                            
 18    15      1                            
 18    13      1                            
 15    14      1                            
 15    8       1                            
 15    9       1                            
 15    21      1                            
 16    10      1                            
 16    11      1                            
 19    13      1                            
 19    21      1                            
 13    8       1                            
 13    9       1                            
 13    6       1                            
 13    12      1                            
 10    11      1                            
 10    14      1                            
 10    9       1                            
 10    3       1                            
 10    4       1                            
 10    12      1                            
 11    8       1                            
 11    6       1                            
 14    8       1                            
 14    12      1                            
  8    1       1                            
  8    2       1                            
  8    7       1                            
  9    3       1                            
  9    4       1                            
  6    1       1                            
  6    2       1                            
  6    5       1                            
 6    12       1                            
 6    85       1                            
  3    4       1                            
  3    2       1                            
  3    5       1                            
  3    7       1                            
  4    1       1                            
 4    85       1                            
  1    7       1                            
  5    7       1                            
 5    85       1                            
 26    28      1                            
 33    35      1                            
 54    56      1                            
 61    63      1                            
 82    84      1                            
 84    86      1                            
 76    75      1                 
 73    75      1                 
 77    75      1                 
 74    87      1                 
 69    75      1                 
 71    87      1                 
 72    88      1                 
 72    89      1                 
 72    90      1                 
 75    91      1                 
 75    92      1                 
 75    93      1                 
 87    94      1                 
 89    91      1                 
 90    91      1                 
 89    92      1                 
 90    92      1                 
 89    93      1                 
 90    93      1                 
 88    95      1                 
 88    96      1                 
 88    97      1                 
 92    94      1                 
 93    94      1                 
 91    98      1                 
 91    99      1                 
 91    100      1                 
 96    98      1                 
 97    98      1                 
 96    99      1                 
 94    101      1                 
 97    99      1                 
 96    100      1                 
 97    100      1                 
 95    102      1                 
 95    103      1                 
 95    104      1                 
 99    101      1                 
 100    101      1                 
 98    105      1                 
 98    106      1                 
 98    107      1                 
 103    105      1                 
 104    105      1                 
 103    106      1                 
 101    108      1                 
 104    106      1                 
 103    107      1                 
 104    107      1                 
 102    109      1                 
 102    110      1                 
 102    111      1                 
 106    108      1                 
 107    108      1                 
 48    47      1                 
 45    47      1                 
 49    47      1                 
 46    112      1                 
 41    47      1                 
 43    112      1                 
 44    113      1                 
 44    114      1                 
 44    115      1                 
 47    116      1                 
 47    117      1                 
 47    118      1                 
 112    119      1                 
 114    116      1                 
 115    116      1                 
 114    117      1                 
 115    117      1                 
 114    118      1                 
 115    118      1                 
 113    120      1                 
 113    121      1                 
 113    122      1                 
 117    119      1                 
 118    119      1                 
 116    123      1                 
 116    124      1                 
 116    125      1                 
 121    123      1                 
 122    123      1                 
 121    124      1                 
 119    126      1                 
 122    124      1                 
 121    125      1                 
 122    125      1                 
 120    127      1                 
 120    128      1                 
 120    129      1                 
 124    126      1                 
 125    126      1                 
 123    130      1                 
 123    131      1                 
 123    132      1                 
 128    130      1                 
 129    130      1                 
 128    131      1                 
 126    133      1                 
 129    131      1                 
 128    132      1                 
 129    132      1                 
 127    134      1                 
 127    135      1                 
 127    136      1                 
 131    133      1                 
 132    133      1                 
 64    70      1                 
 66    70      1                 
 68    70      1                 
 65    137      1                 
 71    70      1                 
 69    137      1                 
 67    138      1                 
 67    139      1                 
 67    140      1                 
 70    141      1                 
 70    142      1                 
 70    143      1                 
 137    144      1                 
 139    141      1                 
 140    141      1                 
 139    142      1                 
 140    142      1                 
 139    143      1                 
 140    143      1                 
 138    145      1                 
 138    146      1                 
 138    147      1                 
 142    144      1                 
 143    144      1                 
 141    148      1                 
 141    149      1                 
 141    150      1                 
 146    148      1                 
 147    148      1                 
 146    149      1                 
 144    151      1                 
 147    149      1                 
 146    150      1                 
 147    150      1                 
 145    152      1                 
 145    153      1                 
 145    154      1                 
 149    151      1                 
 150    151      1                 
 148    155      1                 
 148    156      1                 
 148    157      1                 
 153    155      1                 
 154    155      1                 
 153    156      1                 
 151    158      1                 
 154    156      1                 
 153    157      1                 
 154    157      1                 
 152    159      1                 
 152    160      1                 
 152    161      1                 
 156    158      1                 
 157    158      1                 
 36    42      1                 
 38    42      1                 
 40    42      1                 
 37    162      1                 
 43    42      1                 
 41    162      1                 
 39    163      1                 
 39    164      1                 
 39    165      1                 
 42    166      1                 
 42    167      1                 
 42    168      1                 
 162    169      1                 
 164    166      1                 
 165    166      1                 
 164    167      1                 
 165    167      1                 
 164    168      1                 
 165    168      1                 
 163    170      1                 
 163    171      1                 
 163    172      1                 
 167    169      1                 
 168    169      1                 
 166    173      1                 
 166    174      1                 
 166    175      1                 
 171    173      1                 
 172    173      1                 
 171    174      1                 
 169    176      1                 
 172    174      1                 
 171    175      1                 
 172    175      1                 
 170    177      1                 
 170    178      1                 
 170    179      1                 
 174    176      1                 
 175    176      1                 
 173    180      1                 
 173    181      1                 
 173    182      1                 
 178    180      1                 
 179    180      1                 
 178    181      1                 
 176    183      1                 
 179    181      1                 
 178    182      1                 
 179    182      1                 
 177    184      1                 
 177    185      1                 
 177    186      1                 
 181    183      1                 
 182    183      1                 
 20    19      1                 
 17    19      1                 
 21    19      1                 
 18    187      1                 
 13    19      1                 
 15    187      1                 
 16    188      1                 
 16    189      1                 
 16    190      1                 
 19    191      1                 
 19    192      1                 
 19    193      1                 
 187    194      1                 
 189    191      1                 
 190    191      1                 
 189    192      1                 
 190    192      1                 
 189    193      1                 
 190    193      1                 
 188    195      1                 
 188    196      1                 
 188    197      1                 
 192    194      1                 
 193    194      1                 
 191    198      1                 
 191    199      1                 
 191    200      1                 
 196    198      1                 
 197    198      1                 
 196    199      1                 
 194    201      1                 
 197    199      1                 
 196    200      1                 
 197    200      1                 
 195    202      1                 
 195    203      1                 
 195    204      1                 
 199    201      1                 
 200    201      1                 
 198    205      1                 
 198    206      1                 
 198    207      1                 
 203    205      1                 
 204    205      1                 
 203    206      1                 
 201    208      1                 
 204    206      1                 
 203    207      1                 
 204    207      1                 
 202    209      1                 
 202    210      1                 
 202    211      1                 
 206    208      1                 
 207    208      1                 
 8    14       1                 
 10    14      1                 
 12    14      1                 
 9    212      1                 
 15    14      1                 
 13    212      1                 
 11    213      1                 
 11    214      1                 
 11    215      1                 
 14    216      1                 
 14    217      1                 
 14    218      1                 
 212    219      1                 
 214    216      1                 
 215    216      1                 
 214    217      1                 
 215    217      1                 
 214    218      1                 
 215    218      1                 
 213    220      1                 
 213    221      1                 
 213    222      1                 
 217    219      1                 
 218    219      1                 
 216    223      1                 
 216    224      1                 
 216    225      1                 
 221    223      1                 
 222    223      1                 
 221    224      1                 
 219    226      1                 
 222    224      1                 
 221    225      1                 
 222    225      1                 
 220    227      1                 
 220    228      1                 
 220    229      1                 
 224    226      1                 
 225    226      1                 
 223    230      1                 
 223    231      1                 
 223    232      1                 
 228    230      1                 
 229    230      1                 
 228    231      1                 
 226    233      1                 
 229    231      1                 
 228    232      1                 
 229    232      1                 
 227    234      1                 
 227    235      1                 
 227    236      1                 
 231    233      1                 
 232    233      1                 
 
