Polymer Block
  236
    1PLYX   C20    1  -2.276  -0.040   0.048
    1PLYX   C21    2  -2.233  -0.058  -0.081
    1PLYX   S1Y    3  -2.145  -0.005   0.155
    1PLYX   C1Z    4  -2.092  -0.043  -0.095
    1PLYX   H22    5  -2.300  -0.081  -0.164
    1PLYX   C1X    6  -2.029  -0.013   0.024
    1PLYX   H23    7  -2.039  -0.051  -0.190
    1PLYX   C1V    8  -1.887   0.010   0.049
    1PLYX   C1W    9  -1.829   0.082   0.153
    1PLYX   S1R   10  -1.767  -0.057  -0.058
    1PLYX   C1S   11  -1.687   0.083   0.144
    1PLYX   H24   12  -1.886   0.133   0.229
    1PLYX   C1Q   13  -1.635   0.013   0.034
    1PLYX   O1T   14  -1.600   0.145   0.229
    1PLYX   C1M   15  -1.497  -0.004  -0.003
    1PLYX   C1N   16  -1.446  -0.075  -0.111
    1PLYX   S1J   17  -1.365   0.067   0.089
    1PLYX   C1K   18  -1.304  -0.071  -0.122
    1PLYX   O1O   19  -1.532  -0.138  -0.196
    1PLYX   C1I   20  -1.245   0.003  -0.020
    1PLYX   H28   21  -1.247  -0.118  -0.201
    1PLYX   C1G   22  -1.105   0.030   0.002
    1PLYX   C1H   23  -1.046   0.130   0.076
    1PLYX   S1E   24  -0.982  -0.073  -0.069
    1PLYX   C1F   25  -0.904   0.125   0.077
    1PLYX   H2C   26  -1.103   0.207   0.128
    1PLYX   C1D   27  -0.852   0.020   0.002
    1PLYX   H2D   28  -0.840   0.195   0.131
    1PLYX   C1B   29  -0.714  -0.016  -0.022
    1PLYX   C1C   30  -0.661  -0.135  -0.069
    1PLYX   S19   31  -0.585   0.099   0.009
    1PLYX   C1A   32  -0.520  -0.134  -0.081
    1PLYX   H2E   33  -0.724  -0.221  -0.094
    1PLYX   C18   34  -0.462  -0.015  -0.042
    1PLYX   H2F   35  -0.462  -0.219  -0.118
    1PLYX   C16   36  -0.322   0.022  -0.040
    1PLYX   C17   37  -0.267   0.149  -0.038
    1PLYX   S12   38  -0.199  -0.101  -0.038
    1PLYX   C13   39  -0.124   0.147  -0.037
    1PLYX   H2G   40  -0.327   0.240  -0.041
    1PLYX   C01   41  -0.070   0.018  -0.038
    1PLYX   O14   42  -0.041   0.254  -0.036
    1PLYX   C00   43   0.070  -0.018  -0.038
    1PLYX   C02   44   0.124  -0.147  -0.037
    1PLYX   S03   45   0.199   0.101  -0.038
    1PLYX   C04   46   0.267  -0.149  -0.038
    1PLYX   O05   47   0.041  -0.254  -0.036
    1PLYX   C06   48   0.322  -0.022  -0.040
    1PLYX   H2K   49   0.327  -0.240  -0.041
    1PLYX   C08   50   0.462   0.015  -0.042
    1PLYX   C09   51   0.520   0.134  -0.081
    1PLYX   S0A   52   0.585  -0.099   0.009
    1PLYX   C0B   53   0.661   0.135  -0.069
    1PLYX   H2P   54   0.462   0.219  -0.118
    1PLYX   C0C   55   0.714   0.016  -0.022
    1PLYX   H2Q   56   0.724   0.221  -0.094
    1PLYX   C0D   57   0.852  -0.020   0.002
    1PLYX   C0E   58   0.904  -0.125   0.077
    1PLYX   S0F   59   0.982   0.073  -0.069
    1PLYX   C0G   60   1.046  -0.130   0.076
    1PLYX   H2R   61   0.840  -0.195   0.131
    1PLYX   C0H   62   1.105  -0.030   0.002
    1PLYX   H2S   63   1.103  -0.207   0.128
    1PLYX   C0I   64   1.245  -0.003  -0.020
    1PLYX   C0J   65   1.304   0.071  -0.122
    1PLYX   S0K   66   1.365  -0.067   0.089
    1PLYX   C0M   67   1.446   0.075  -0.111
    1PLYX   H2T   68   1.247   0.118  -0.201
    1PLYX   C0N   69   1.497   0.004  -0.003
    1PLYX   O0O   70   1.532   0.138  -0.196
    1PLYX   C0P   71   1.635  -0.013   0.034
    1PLYX   C0R   72   1.687  -0.083   0.144
    1PLYX   S0S   73   1.767   0.057  -0.058
    1PLYX   C0T   74   1.829  -0.082   0.153
    1PLYX   O0U   75   1.600  -0.145   0.229
    1PLYX   C0V   76   1.887  -0.010   0.049
    1PLYX   H2X   77   1.886  -0.133   0.229
    1PLYX   C0X   78   2.029   0.013   0.024
    1PLYX   C0Y   79   2.092   0.043  -0.095
    1PLYX   S0Z   80   2.145   0.005   0.155
    1PLYX   C10   81   2.233   0.058  -0.081
    1PLYX   H31   82   2.039   0.051  -0.190
    1PLYX   C11   83   2.276   0.040   0.048
    1PLYX   H32   84   2.300   0.081  -0.164
    1PLYX   H33   85  -2.378  -0.045   0.087
    1PLYX   H34   86   2.378   0.045   0.087
    1PLYX   C0I   87   1.826  -0.079   0.504
    1PLYX   C0N   88   1.844  -0.297   0.722
    1PLYX   H0O   89   2.027  -0.032   0.433
    1PLYX   H0P   90   1.731   0.101   0.588
    1PLYX   O0Q   91   2.001  -0.200   0.941
    1PLYX   H0R   92   1.935  -0.473   0.642
    1PLYX   H0S   93   1.647  -0.344   0.793
    1PLYX   C0T   94   2.018  -0.401   1.143
    1PLYX   C0U   95   2.187  -0.296   1.378
    1PLYX   H0V   96   2.111  -0.576   1.060
    1PLYX   H0W   97   1.822  -0.449   1.212
    1PLYX   O0X   98   2.204  -0.497   1.580
    1PLYX   H0Y   99   2.383  -0.248   1.310
    1PLYX   H0Z  100   2.094  -0.121   1.461
    1PLYX   C10  101   2.363  -0.400   1.798
    1PLYX   C11  102   2.379  -0.618   2.017
    1PLYX   H12  103   2.559  -0.353   1.730
    1PLYX   H13  104   2.270  -0.226   1.881
    1PLYX   O14  105   2.538  -0.521   2.235
    1PLYX   H15  106   2.471  -0.794   1.935
    1PLYX   H16  107   2.183  -0.665   2.086
    1PLYX   C17  108   2.555  -0.722   2.437
    1PLYX   H18  109   2.671  -0.649   2.600
    1PLYX   H19  110   2.648  -0.897   2.354
    1PLYX   H1A  111   2.358  -0.772   2.506
    1PLYX   C0I  112   0.008  -0.505   0.156
    1PLYX   C0N  113  -0.248  -0.674   0.126
    1PLYX   H0O  114   0.182  -0.629   0.108
    1PLYX   H0P  115   0.023  -0.430   0.362
    1PLYX   O0Q  116  -0.238  -0.895   0.309
    1PLYX   H0R  117  -0.265  -0.748  -0.073
    1PLYX   H0S  118  -0.420  -0.554   0.173
    1PLYX   C0T  119  -0.475  -1.052   0.282
    1PLYX   C0U  120  -0.464  -1.290   0.478
    1PLYX   H0V  121  -0.489  -1.125   0.081
    1PLYX   H0W  122  -0.645  -0.931   0.326
    1PLYX   O0X  123  -0.701  -1.447   0.450
    1PLYX   H0Y  124  -0.294  -1.411   0.433
    1PLYX   H0Z  125  -0.450  -1.217   0.679
    1PLYX   C10  126  -0.690  -1.669   0.631
    1PLYX   C11  127  -0.947  -1.837   0.603
    1PLYX   H12  128  -0.520  -1.790   0.587
    1PLYX   H13  129  -0.676  -1.596   0.832
    1PLYX   O14  130  -0.936  -2.059   0.784
    1PLYX   H15  131  -0.962  -1.910   0.401
    1PLYX   H16  132  -1.117  -1.716   0.648
    1PLYX   C17  133  -1.173  -2.216   0.757
    1PLYX   H18  134  -1.165  -2.379   0.893
    1PLYX   H19  135  -1.186  -2.289   0.556
    1PLYX   H1A  136  -1.344  -2.095   0.800
    1PLYX   C0I  137   1.676   0.077  -0.469
    1PLYX   C0N  138   1.700   0.299  -0.682
    1PLYX   H0O  139   1.877   0.027  -0.394
    1PLYX   H0P  140   1.582  -0.101  -0.558
    1PLYX   O0Q  141   1.860   0.204  -0.900
    1PLYX   H0R  142   1.791   0.472  -0.597
    1PLYX   H0S  143   1.505   0.348  -0.756
    1PLYX   C0T  144   1.882   0.410  -1.098
    1PLYX   C0U  145   2.054   0.308  -1.332
    1PLYX   H0V  146   1.974   0.582  -1.010
    1PLYX   H0W  147   1.687   0.460  -1.169
    1PLYX   O0X  148   2.076   0.513  -1.530
    1PLYX   H0Y  149   2.249   0.257  -1.261
    1PLYX   H0Z  150   1.962   0.135  -1.420
    1PLYX   C10  151   2.238   0.419  -1.747
    1PLYX   C11  152   2.259   0.640  -1.961
    1PLYX   H12  153   2.432   0.369  -1.676
    1PLYX   H13  154   2.145   0.247  -1.835
    1PLYX   O14  155   2.421   0.547  -2.178
    1PLYX   H15  156   2.351   0.815  -1.874
    1PLYX   H16  157   2.065   0.691  -2.032
    1PLYX   C17  158   2.443   0.752  -2.376
    1PLYX   H18  159   2.561   0.681  -2.538
    1PLYX   H19  160   2.535   0.925  -2.288
    1PLYX   H1A  161   2.248   0.804  -2.448
    1PLYX   C0I  162  -0.008   0.505   0.156
    1PLYX   C0N  163   0.248   0.674   0.126
    1PLYX   H0O  164  -0.182   0.629   0.108
    1PLYX   H0P  165  -0.023   0.430   0.362
    1PLYX   O0Q  166   0.238   0.895   0.309
    1PLYX   H0R  167   0.265   0.748  -0.073
    1PLYX   H0S  168   0.420   0.554   0.173
    1PLYX   C0T  169   0.475   1.052   0.282
    1PLYX   C0U  170   0.464   1.290   0.478
    1PLYX   H0V  171   0.489   1.125   0.081
    1PLYX   H0W  172   0.645   0.931   0.326
    1PLYX   O0X  173   0.701   1.447   0.450
    1PLYX   H0Y  174   0.294   1.411   0.433
    1PLYX   H0Z  175   0.450   1.217   0.679
    1PLYX   C10  176   0.690   1.669   0.631
    1PLYX   C11  177   0.947   1.837   0.603
    1PLYX   H12  178   0.520   1.790   0.587
    1PLYX   H13  179   0.676   1.596   0.832
    1PLYX   O14  180   0.936   2.059   0.784
    1PLYX   H15  181   0.962   1.910   0.401
    1PLYX   H16  182   1.117   1.716   0.648
    1PLYX   C17  183   1.173   2.216   0.757
    1PLYX   H18  184   1.165   2.379   0.893
    1PLYX   H19  185   1.186   2.289   0.556
    1PLYX   H1A  186   1.344   2.095   0.800
    1PLYX   C0I  187  -1.676  -0.077  -0.469
    1PLYX   C0N  188  -1.700  -0.299  -0.682
    1PLYX   H0O  189  -1.877  -0.027  -0.394
    1PLYX   H0P  190  -1.582   0.101  -0.558
    1PLYX   O0Q  191  -1.860  -0.204  -0.900
    1PLYX   H0R  192  -1.791  -0.472  -0.597
    1PLYX   H0S  193  -1.505  -0.348  -0.756
    1PLYX   C0T  194  -1.882  -0.410  -1.098
    1PLYX   C0U  195  -2.054  -0.308  -1.332
    1PLYX   H0V  196  -1.974  -0.582  -1.010
    1PLYX   H0W  197  -1.687  -0.460  -1.169
    1PLYX   O0X  198  -2.076  -0.513  -1.530
    1PLYX   H0Y  199  -2.249  -0.257  -1.261
    1PLYX   H0Z  200  -1.962  -0.135  -1.420
    1PLYX   C10  201  -2.238  -0.419  -1.747
    1PLYX   C11  202  -2.259  -0.640  -1.961
    1PLYX   H12  203  -2.432  -0.369  -1.676
    1PLYX   H13  204  -2.145  -0.247  -1.835
    1PLYX   O14  205  -2.421  -0.547  -2.178
    1PLYX   H15  206  -2.351  -0.815  -1.874
    1PLYX   H16  207  -2.065  -0.691  -2.032
    1PLYX   C17  208  -2.443  -0.752  -2.376
    1PLYX   H18  209  -2.561  -0.681  -2.538
    1PLYX   H19  210  -2.535  -0.925  -2.288
    1PLYX   H1A  211  -2.248  -0.804  -2.448
    1PLYX   C0I  212  -1.826   0.079   0.504
    1PLYX   C0N  213  -1.844   0.297   0.722
    1PLYX   H0O  214  -2.027   0.032   0.433
    1PLYX   H0P  215  -1.731  -0.101   0.588
    1PLYX   O0Q  216  -2.001   0.200   0.941
    1PLYX   H0R  217  -1.935   0.473   0.642
    1PLYX   H0S  218  -1.647   0.344   0.793
    1PLYX   C0T  219  -2.018   0.401   1.143
    1PLYX   C0U  220  -2.187   0.296   1.378
    1PLYX   H0V  221  -2.111   0.576   1.060
    1PLYX   H0W  222  -1.822   0.449   1.212
    1PLYX   O0X  223  -2.204   0.497   1.580
    1PLYX   H0Y  224  -2.383   0.248   1.310
    1PLYX   H0Z  225  -2.094   0.121   1.461
    1PLYX   C10  226  -2.363   0.400   1.798
    1PLYX   C11  227  -2.379   0.618   2.017
    1PLYX   H12  228  -2.559   0.353   1.730
    1PLYX   H13  229  -2.270   0.226   1.881
    1PLYX   O14  230  -2.538   0.521   2.235
    1PLYX   H15  231  -2.471   0.794   1.935
    1PLYX   H16  232  -2.183   0.665   2.086
    1PLYX   C17  233  -2.555   0.722   2.437
    1PLYX   H18  234  -2.671   0.649   2.600
    1PLYX   H19  235  -2.648   0.897   2.354
    1PLYX   H1A  236  -2.358   0.772   2.506
   0.00000   0.00000   0.00000
