; 
; 
; 
;              An extender, a parser, a website -- are you getting it?????
;                                  ITP made through POLYX
; 
; 
; 
 
 
[ moleculetype ]
; Name               nrexcl

   PGT         3                 
 
[ atoms ]
    1       BACK_846      1         BCK        C1B         1       -0.168083   12.0110   
    2       BACK_847      1         BCK        C1C         1       -0.151428   12.0110   
    3       BACK_844      1         BCK        S19         1       0.290780   32.0670   
    4       BACK_845      1         BCK        C1A         1       -0.149194   12.0110   
    5       BACK_884      1         BCK        H2E         1       0.163081    1.0080   
    6       BACK_843      1         BCK        C18         1       -0.170705   12.0110   
    7       BACK_885      1         BCK        H2F         1       0.164237    1.0080   
    8       BACK_841      1         BCK        C16         1       -0.187519   12.0110   
    9       BACK_842      1         BCK        C17         1       -0.192345   12.0110   
    10      BACK_837      1         BCK        S12         1       0.330618   32.0670   
    11      BACK_838      1         BCK        C13         1       0.333657   12.0110   
    12      BACK_886      1         BCK        H2G         1       0.164906    1.0080   
    13      BACK_801      1         BCK        C01         1       -0.214175   12.0110   
    14      BACK_839      1         BCK        O14         1       -0.467562   15.9990   
    15      BACK_800      1         BCK        C00         1       -0.214175   12.0110   
    16      BACK_802      1         BCK        C02         1       0.333657   12.0110   
    17      BACK_803      1         BCK        S03         1       0.330618   32.0670   
    18      BACK_804      1         BCK        C04         1       -0.192345   12.0110   
    19      BACK_805      1         BCK        O05         1       -0.467562   15.9990   
    20      BACK_806      1         BCK        C06         1       -0.187519   12.0110   
    21      BACK_890      1         BCK        H2K         1       0.164906    1.0080   
    22      BACK_808      1         BCK        C08         1       -0.170705   12.0110   
    23      BACK_809      1         BCK        C09         1       -0.149194   12.0110   
    24      BACK_810      1         BCK        S0A         1       0.290780   32.0670   
    25      BACK_811      1         BCK        C0B         1       -0.151429   12.0110   
    26      BACK_894      1         BCK        H2P         1       0.164237    1.0080   
    27      BACK_812      1         BCK        C0C         1       -0.168082   12.0110   
    28      BACK_895      1         BCK        H2Q         1       0.163081    1.0080   
    29      BACK_813      1         BCK        C0D         1       -0.168434   12.0110   
    30      BACK_814      1         BCK        C0E         1       -0.151315   12.0110   
    31      BACK_815      1         BCK        S0F         1       0.290545   32.0670   
    32      BACK_816      1         BCK        C0G         1       -0.149320   12.0110   
    33      BACK_896      1         BCK        H2R         1       0.162906    1.0080   
    34      BACK_817      1         BCK        C0H         1       -0.170432   12.0110   
    35      BACK_897      1         BCK        H2S         1       0.164169    1.0080   
    36      BACK_818      1         BCK        C0I         1       -0.188106   12.0110   
    37      BACK_819      1         BCK        C0J         1       -0.192207   12.0110   
    38      BACK_820      1         BCK        S0K         1       0.330003   32.0670   
    39      BACK_821      1         BCK        C0M         1       0.332980   12.0110   
    40      BACK_898      1         BCK        H2T         1       0.164546    1.0080   
    41      BACK_822      1         BCK        C0N         1       -0.213307   12.0110   
    42      BACK_823      1         BCK        O0O         1       -0.467556   15.9990   
    43      BACK_824      1         BCK        C0P         1       -0.216402   12.0110   
    44      BACK_826      1         BCK        C0R         1       0.332897   12.0110   
    45      BACK_827      1         BCK        S0S         1       0.328690   32.0670   
    46      BACK_828      1         BCK        C0T         1       -0.190147   12.0110   
    47      BACK_829      1         BCK        O0U         1       -0.467352   15.9990   
    48      BACK_830      1         BCK        C0V         1       -0.178020   12.0110   
    49      BACK_9502      1         BCK        H2X         1       0.163135    1.0080   
    50      BACK_832      1         BCK        C0X         1       -0.188267   12.0110   
    51      BACK_833      1         BCK        C0Y         1       -0.136648   12.0110   
    52      BACK_834      1         BCK        S0Z         1       0.281702   32.0670   
    53      BACK_835      1         BCK        C10         1       -0.109687   12.0110   
    54      BACK_9506      1         BCK        H31         1       0.161989    1.0080   
    55      BACK_836      1         BCK        C11         1       -0.364927   12.0110   
    56      BACK_9507      1         BCK        H32         1       0.152956    1.0080   
    57      BACK_9509      1         BCK        H34         1       0.183580    1.0080   
    58      side_818      1         SID        C0I         1        0.0061    12.0110   
    59      side_822      1         SID        C0N         1        0.0071    12.0110   
    60      side_823      1         SID        H0O         1        0.1092     1.0080   
    61      side_824      1         SID        H0P         1        0.1092     1.0080   
    62      side_825      1         SID        O0Q         1       -0.3841    15.9990   
    63      side_826      1         SID        H0R         1        0.0955     1.0080   
    64      side_827      1         SID        H0S         1        0.0955     1.0080   
    65      side_828      1         SID        C0T         1        0.0086    12.0110   
    66      side_829      1         SID        C0U         1        0.0098    12.0110   
    67      side_830      1         SID        H0V         1        0.0924     1.0080   
    68      side_831      1         SID        H0W         1        0.0924     1.0080   
    69      side_832      1         SID        O0X         2       -0.3853    15.9990   
    70      side_833      1         SID        H0Y         2        0.0916     1.0080   
    71      side_834      1         SID        H0Z         2        0.0916     1.0080   
    72      side_835      1         SID        C10         2        0.0086    12.0110   
    73      side_836      1         SID        C11         2        0.0034    12.0110   
    74      side_837      1         SID        H12         2        0.0914     1.0080   
    75      side_838      1         SID        H13         2        0.0914     1.0080   
    76      side_839      1         SID        O14         2       -0.3816    15.9990   
    77      side_840      1         SID        H15         2        0.0891     1.0080   
    78      side_841      1         SID        H16         2        0.0891     1.0080   
    79      side_842      1         SID        C17         2       -0.0440    12.0110   
    80      side_843      1         SID        H18         2        0.0831     1.0080   
    81      side_844      1         SID        H19         2        0.0831     1.0080   
    82      side_845      1         SID        H1A         2        0.0831     1.0080   
    83      side_818      1         SID        C0I         1        0.0061    12.0110   
    84      side_822      1         SID        C0N         1        0.0071    12.0110   
    85      side_823      1         SID        H0O         1        0.1092     1.0080   
    86      side_824      1         SID        H0P         1        0.1092     1.0080   
    87      side_825      1         SID        O0Q         1       -0.3841    15.9990   
    88      side_826      1         SID        H0R         1        0.0955     1.0080   
    89      side_827      1         SID        H0S         1        0.0955     1.0080   
    90      side_828      1         SID        C0T         1        0.0086    12.0110   
    91      side_829      1         SID        C0U         1        0.0098    12.0110   
    92      side_830      1         SID        H0V         1        0.0924     1.0080   
    93      side_831      1         SID        H0W         1        0.0924     1.0080   
    94      side_832      1         SID        O0X         2       -0.3853    15.9990   
    95      side_833      1         SID        H0Y         2        0.0916     1.0080   
    96      side_834      1         SID        H0Z         2        0.0916     1.0080   
    97      side_835      1         SID        C10         2        0.0086    12.0110   
    98      side_836      1         SID        C11         2        0.0034    12.0110   
    99      side_837      1         SID        H12         2        0.0914     1.0080   
   100      side_838      1         SID        H13         2        0.0914     1.0080   
   101      side_839      1         SID        O14         2       -0.3816    15.9990   
   102      side_840      1         SID        H15         2        0.0891     1.0080   
   103      side_841      1         SID        H16         2        0.0891     1.0080   
   104      side_842      1         SID        C17         2       -0.0440    12.0110   
   105      side_843      1         SID        H18         2        0.0831     1.0080   
   106      side_844      1         SID        H19         2        0.0831     1.0080   
   107      side_845      1         SID        H1A         2        0.0831     1.0080   
   108      side_818      1         SID        C0I         1        0.0061    12.0110   
   109      side_822      1         SID        C0N         1        0.0071    12.0110   
   110      side_823      1         SID        H0O         1        0.1092     1.0080   
   111      side_824      1         SID        H0P         1        0.1092     1.0080   
   112      side_825      1         SID        O0Q         1       -0.3841    15.9990   
   113      side_826      1         SID        H0R         1        0.0955     1.0080   
   114      side_827      1         SID        H0S         1        0.0955     1.0080   
   115      side_828      1         SID        C0T         1        0.0086    12.0110   
   116      side_829      1         SID        C0U         1        0.0098    12.0110   
   117      side_830      1         SID        H0V         1        0.0924     1.0080   
   118      side_831      1         SID        H0W         1        0.0924     1.0080   
   119      side_832      1         SID        O0X         2       -0.3853    15.9990   
   120      side_833      1         SID        H0Y         2        0.0916     1.0080   
   121      side_834      1         SID        H0Z         2        0.0916     1.0080   
   122      side_835      1         SID        C10         2        0.0086    12.0110   
   123      side_836      1         SID        C11         2        0.0034    12.0110   
   124      side_837      1         SID        H12         2        0.0914     1.0080   
   125      side_838      1         SID        H13         2        0.0914     1.0080   
   126      side_839      1         SID        O14         2       -0.3816    15.9990   
   127      side_840      1         SID        H15         2        0.0891     1.0080   
   128      side_841      1         SID        H16         2        0.0891     1.0080   
   129      side_842      1         SID        C17         2       -0.0440    12.0110   
   130      side_843      1         SID        H18         2        0.0831     1.0080   
   131      side_844      1         SID        H19         2        0.0831     1.0080   
   132      side_845      1         SID        H1A         2        0.0831     1.0080   
   133      side_818      1         SID        C0I         1        0.0061    12.0110   
   134      side_822      1         SID        C0N         1        0.0071    12.0110   
   135      side_823      1         SID        H0O         1        0.1092     1.0080   
   136      side_824      1         SID        H0P         1        0.1092     1.0080   
   137      side_825      1         SID        O0Q         1       -0.3841    15.9990   
   138      side_826      1         SID        H0R         1        0.0955     1.0080   
   139      side_827      1         SID        H0S         1        0.0955     1.0080   
   140      side_828      1         SID        C0T         1        0.0086    12.0110   
   141      side_829      1         SID        C0U         1        0.0098    12.0110   
   142      side_830      1         SID        H0V         1        0.0924     1.0080   
   143      side_831      1         SID        H0W         1        0.0924     1.0080   
   144      side_832      1         SID        O0X         2       -0.3853    15.9990   
   145      side_833      1         SID        H0Y         2        0.0916     1.0080   
   146      side_834      1         SID        H0Z         2        0.0916     1.0080   
   147      side_835      1         SID        C10         2        0.0086    12.0110   
   148      side_836      1         SID        C11         2        0.0034    12.0110   
   149      side_837      1         SID        H12         2        0.0914     1.0080   
   150      side_838      1         SID        H13         2        0.0914     1.0080   
   151      side_839      1         SID        O14         2       -0.3816    15.9990   
   152      side_840      1         SID        H15         2        0.0891     1.0080   
   153      side_841      1         SID        H16         2        0.0891     1.0080   
   154      side_842      1         SID        C17         2       -0.0440    12.0110   
   155      side_843      1         SID        H18         2        0.0831     1.0080   
   156      side_844      1         SID        H19         2        0.0831     1.0080   
   157      side_845      1         SID        H1A         2        0.0831     1.0080   
   158      BACK_846      1         BCK        C1B         1       -0.168083   12.0110   
   159      BACK_847      1         BCK        C1C         1       -0.151428   12.0110   
   160      BACK_844      1         BCK        S19         1       0.290780   32.0670   
   161      BACK_845      1         BCK        C1A         1       -0.149194   12.0110   
   162      BACK_884      1         BCK        H2E         1       0.163081    1.0080   
   163      BACK_843      1         BCK        C18         1       -0.170705   12.0110   
   164      BACK_885      1         BCK        H2F         1       0.164237    1.0080   
   165      BACK_841      1         BCK        C16         1       -0.187519   12.0110   
   166      BACK_842      1         BCK        C17         1       -0.192345   12.0110   
   167      BACK_837      1         BCK        S12         1       0.330618   32.0670   
   168      BACK_838      1         BCK        C13         1       0.333657   12.0110   
   169      BACK_886      1         BCK        H2G         1       0.164906    1.0080   
   170      BACK_801      1         BCK        C01         1       -0.214175   12.0110   
   171      BACK_839      1         BCK        O14         1       -0.467562   15.9990   
   172      BACK_800      1         BCK        C00         1       -0.214175   12.0110   
   173      BACK_802      1         BCK        C02         1       0.333657   12.0110   
   174      BACK_803      1         BCK        S03         1       0.330618   32.0670   
   175      BACK_804      1         BCK        C04         1       -0.192345   12.0110   
   176      BACK_805      1         BCK        O05         1       -0.467562   15.9990   
   177      BACK_806      1         BCK        C06         1       -0.187519   12.0110   
   178      BACK_890      1         BCK        H2K         1       0.164906    1.0080   
   179      BACK_808      1         BCK        C08         1       -0.170705   12.0110   
   180      BACK_809      1         BCK        C09         1       -0.149194   12.0110   
   181      BACK_810      1         BCK        S0A         1       0.290780   32.0670   
   182      BACK_811      1         BCK        C0B         1       -0.151429   12.0110   
   183      BACK_894      1         BCK        H2P         1       0.164237    1.0080   
   184      BACK_812      1         BCK        C0C         1       -0.168082   12.0110   
   185      BACK_895      1         BCK        H2Q         1       0.163081    1.0080   
   186      side_818      1         SID        C0I         1        0.0061    12.0110   
   187      side_822      1         SID        C0N         1        0.0071    12.0110   
   188      side_823      1         SID        H0O         1        0.1092     1.0080   
   189      side_824      1         SID        H0P         1        0.1092     1.0080   
   190      side_825      1         SID        O0Q         1       -0.3841    15.9990   
   191      side_826      1         SID        H0R         1        0.0955     1.0080   
   192      side_827      1         SID        H0S         1        0.0955     1.0080   
   193      side_828      1         SID        C0T         1        0.0086    12.0110   
   194      side_829      1         SID        C0U         1        0.0098    12.0110   
   195      side_830      1         SID        H0V         1        0.0924     1.0080   
   196      side_831      1         SID        H0W         1        0.0924     1.0080   
   197      side_832      1         SID        O0X         2       -0.3853    15.9990   
   198      side_833      1         SID        H0Y         2        0.0916     1.0080   
   199      side_834      1         SID        H0Z         2        0.0916     1.0080   
   200      side_835      1         SID        C10         2        0.0086    12.0110   
   201      side_836      1         SID        C11         2        0.0034    12.0110   
   202      side_837      1         SID        H12         2        0.0914     1.0080   
   203      side_838      1         SID        H13         2        0.0914     1.0080   
   204      side_839      1         SID        O14         2       -0.3816    15.9990   
   205      side_840      1         SID        H15         2        0.0891     1.0080   
   206      side_841      1         SID        H16         2        0.0891     1.0080   
   207      side_842      1         SID        C17         2       -0.0440    12.0110   
   208      side_843      1         SID        H18         2        0.0831     1.0080   
   209      side_844      1         SID        H19         2        0.0831     1.0080   
   210      side_845      1         SID        H1A         2        0.0831     1.0080   
   211      side_818      1         SID        C0I         1        0.0061    12.0110   
   212      side_822      1         SID        C0N         1        0.0071    12.0110   
   213      side_823      1         SID        H0O         1        0.1092     1.0080   
   214      side_824      1         SID        H0P         1        0.1092     1.0080   
   215      side_825      1         SID        O0Q         1       -0.3841    15.9990   
   216      side_826      1         SID        H0R         1        0.0955     1.0080   
   217      side_827      1         SID        H0S         1        0.0955     1.0080   
   218      side_828      1         SID        C0T         1        0.0086    12.0110   
   219      side_829      1         SID        C0U         1        0.0098    12.0110   
   220      side_830      1         SID        H0V         1        0.0924     1.0080   
   221      side_831      1         SID        H0W         1        0.0924     1.0080   
   222      side_832      1         SID        O0X         2       -0.3853    15.9990   
   223      side_833      1         SID        H0Y         2        0.0916     1.0080   
   224      side_834      1         SID        H0Z         2        0.0916     1.0080   
   225      side_835      1         SID        C10         2        0.0086    12.0110   
   226      side_836      1         SID        C11         2        0.0034    12.0110   
   227      side_837      1         SID        H12         2        0.0914     1.0080   
   228      side_838      1         SID        H13         2        0.0914     1.0080   
   229      side_839      1         SID        O14         2       -0.3816    15.9990   
   230      side_840      1         SID        H15         2        0.0891     1.0080   
   231      side_841      1         SID        H16         2        0.0891     1.0080   
   232      side_842      1         SID        C17         2       -0.0440    12.0110   
   233      side_843      1         SID        H18         2        0.0831     1.0080   
   234      side_844      1         SID        H19         2        0.0831     1.0080   
   235      side_845      1         SID        H1A         2        0.0831     1.0080   
   236      BACK_846      1         BCK        C1B         1       -0.168083   12.0110   
   237      BACK_847      1         BCK        C1C         1       -0.151428   12.0110   
   238      BACK_844      1         BCK        S19         1       0.290780   32.0670   
   239      BACK_845      1         BCK        C1A         1       -0.149194   12.0110   
   240      BACK_884      1         BCK        H2E         1       0.163081    1.0080   
   241      BACK_843      1         BCK        C18         1       -0.170705   12.0110   
   242      BACK_885      1         BCK        H2F         1       0.164237    1.0080   
   243      BACK_841      1         BCK        C16         1       -0.187519   12.0110   
   244      BACK_842      1         BCK        C17         1       -0.192345   12.0110   
   245      BACK_837      1         BCK        S12         1       0.330618   32.0670   
   246      BACK_838      1         BCK        C13         1       0.333657   12.0110   
   247      BACK_886      1         BCK        H2G         1       0.164906    1.0080   
   248      BACK_801      1         BCK        C01         1       -0.214175   12.0110   
   249      BACK_839      1         BCK        O14         1       -0.467562   15.9990   
   250      BACK_800      1         BCK        C00         1       -0.214175   12.0110   
   251      BACK_802      1         BCK        C02         1       0.333657   12.0110   
   252      BACK_803      1         BCK        S03         1       0.330618   32.0670   
   253      BACK_804      1         BCK        C04         1       -0.192345   12.0110   
   254      BACK_805      1         BCK        O05         1       -0.467562   15.9990   
   255      BACK_806      1         BCK        C06         1       -0.187519   12.0110   
   256      BACK_890      1         BCK        H2K         1       0.164906    1.0080   
   257      BACK_808      1         BCK        C08         1       -0.170705   12.0110   
   258      BACK_809      1         BCK        C09         1       -0.149194   12.0110   
   259      BACK_810      1         BCK        S0A         1       0.290780   32.0670   
   260      BACK_811      1         BCK        C0B         1       -0.151429   12.0110   
   261      BACK_894      1         BCK        H2P         1       0.164237    1.0080   
   262      BACK_812      1         BCK        C0C         1       -0.168082   12.0110   
   263      BACK_895      1         BCK        H2Q         1       0.163081    1.0080   
   264      side_818      1         SID        C0I         1        0.0061    12.0110   
   265      side_822      1         SID        C0N         1        0.0071    12.0110   
   266      side_823      1         SID        H0O         1        0.1092     1.0080   
   267      side_824      1         SID        H0P         1        0.1092     1.0080   
   268      side_825      1         SID        O0Q         1       -0.3841    15.9990   
   269      side_826      1         SID        H0R         1        0.0955     1.0080   
   270      side_827      1         SID        H0S         1        0.0955     1.0080   
   271      side_828      1         SID        C0T         1        0.0086    12.0110   
   272      side_829      1         SID        C0U         1        0.0098    12.0110   
   273      side_830      1         SID        H0V         1        0.0924     1.0080   
   274      side_831      1         SID        H0W         1        0.0924     1.0080   
   275      side_832      1         SID        O0X         2       -0.3853    15.9990   
   276      side_833      1         SID        H0Y         2        0.0916     1.0080   
   277      side_834      1         SID        H0Z         2        0.0916     1.0080   
   278      side_835      1         SID        C10         2        0.0086    12.0110   
   279      side_836      1         SID        C11         2        0.0034    12.0110   
   280      side_837      1         SID        H12         2        0.0914     1.0080   
   281      side_838      1         SID        H13         2        0.0914     1.0080   
   282      side_839      1         SID        O14         2       -0.3816    15.9990   
   283      side_840      1         SID        H15         2        0.0891     1.0080   
   284      side_841      1         SID        H16         2        0.0891     1.0080   
   285      side_842      1         SID        C17         2       -0.0440    12.0110   
   286      side_843      1         SID        H18         2        0.0831     1.0080   
   287      side_844      1         SID        H19         2        0.0831     1.0080   
   288      side_845      1         SID        H1A         2        0.0831     1.0080   
   289      side_818      1         SID        C0I         1        0.0061    12.0110   
   290      side_822      1         SID        C0N         1        0.0071    12.0110   
   291      side_823      1         SID        H0O         1        0.1092     1.0080   
   292      side_824      1         SID        H0P         1        0.1092     1.0080   
   293      side_825      1         SID        O0Q         1       -0.3841    15.9990   
   294      side_826      1         SID        H0R         1        0.0955     1.0080   
   295      side_827      1         SID        H0S         1        0.0955     1.0080   
   296      side_828      1         SID        C0T         1        0.0086    12.0110   
   297      side_829      1         SID        C0U         1        0.0098    12.0110   
   298      side_830      1         SID        H0V         1        0.0924     1.0080   
   299      side_831      1         SID        H0W         1        0.0924     1.0080   
   300      side_832      1         SID        O0X         2       -0.3853    15.9990   
   301      side_833      1         SID        H0Y         2        0.0916     1.0080   
   302      side_834      1         SID        H0Z         2        0.0916     1.0080   
   303      side_835      1         SID        C10         2        0.0086    12.0110   
   304      side_836      1         SID        C11         2        0.0034    12.0110   
   305      side_837      1         SID        H12         2        0.0914     1.0080   
   306      side_838      1         SID        H13         2        0.0914     1.0080   
   307      side_839      1         SID        O14         2       -0.3816    15.9990   
   308      side_840      1         SID        H15         2        0.0891     1.0080   
   309      side_841      1         SID        H16         2        0.0891     1.0080   
   310      side_842      1         SID        C17         2       -0.0440    12.0110   
   311      side_843      1         SID        H18         2        0.0831     1.0080   
   312      side_844      1         SID        H19         2        0.0831     1.0080   
   313      side_845      1         SID        H1A         2        0.0831     1.0080   
   314      BACK_870      1         BCK        C20         1       -0.364927   12.0110   
   315      BACK_871      1         BCK        C21         1       -0.109687   12.0110   
   316      BACK_868      1         BCK        S1Y         1       0.281702   32.0670   
   317      BACK_869      1         BCK        C1Z         1       -0.136647   12.0110   
   318      BACK_872      1         BCK        H22         1       0.152956    1.0080   
   319      BACK_867      1         BCK        C1X         1       -0.188267   12.0110   
   320      BACK_873      1         BCK        H23         1       0.161989    1.0080   
   321      BACK_865      1         BCK        C1V         1       -0.178020   12.0110   
   322      BACK_866      1         BCK        C1W         1       -0.190147   12.0110   
   323      BACK_861      1         BCK        S1R         1       0.328690   32.0670   
   324      BACK_862      1         BCK        C1S         1       0.332897   12.0110   
   325      BACK_874      1         BCK        H24         1       0.163135    1.0080   
   326      BACK_860      1         BCK        C1Q         1       -0.216402   12.0110   
   327      BACK_863      1         BCK        O1T         1       -0.467352   15.9990   
   328      BACK_856      1         BCK        C1M         1       -0.213307   12.0110   
   329      BACK_857      1         BCK        C1N         1       0.332980   12.0110   
   330      BACK_854      1         BCK        S1J         1       0.330003   32.0670   
   331      BACK_855      1         BCK        C1K         1       -0.192208   12.0110   
   332      BACK_858      1         BCK        O1O         1       -0.467556   15.9990   
   333      BACK_853      1         BCK        C1I         1       -0.188106   12.0110   
   334      BACK_878      1         BCK        H28         1       0.164546    1.0080   
   335      BACK_851      1         BCK        C1G         1       -0.170432   12.0110   
   336      BACK_852      1         BCK        C1H         1       -0.149320   12.0110   
   337      BACK_849      1         BCK        S1E         1       0.290545   32.0670   
   338      BACK_850      1         BCK        C1F         1       -0.151315   12.0110   
   339      BACK_882      1         BCK        H2C         1       0.164169    1.0080   
   340      BACK_848      1         BCK        C1D         1       -0.168435   12.0110   
   341      BACK_883      1         BCK        H2D         1       0.162906    1.0080   
   342      BACK_846      1         BCK        C1B         1       -0.168083   12.0110   
   343      BACK_847      1         BCK        C1C         1       -0.151428   12.0110   
   344      BACK_844      1         BCK        S19         1       0.290780   32.0670   
   345      BACK_845      1         BCK        C1A         1       -0.149194   12.0110   
   346      BACK_884      1         BCK        H2E         1       0.163081    1.0080   
   347      BACK_843      1         BCK        C18         1       -0.170705   12.0110   
   348      BACK_885      1         BCK        H2F         1       0.164237    1.0080   
   349      BACK_841      1         BCK        C16         1       -0.187519   12.0110   
   350      BACK_842      1         BCK        C17         1       -0.192345   12.0110   
   351      BACK_837      1         BCK        S12         1       0.330618   32.0670   
   352      BACK_838      1         BCK        C13         1       0.333657   12.0110   
   353      BACK_886      1         BCK        H2G         1       0.164906    1.0080   
   354      BACK_801      1         BCK        C01         1       -0.214175   12.0110   
   355      BACK_839      1         BCK        O14         1       -0.467562   15.9990   
   356      BACK_800      1         BCK        C00         1       -0.214175   12.0110   
   357      BACK_802      1         BCK        C02         1       0.333657   12.0110   
   358      BACK_803      1         BCK        S03         1       0.330618   32.0670   
   359      BACK_804      1         BCK        C04         1       -0.192345   12.0110   
   360      BACK_805      1         BCK        O05         1       -0.467562   15.9990   
   361      BACK_806      1         BCK        C06         1       -0.187519   12.0110   
   362      BACK_890      1         BCK        H2K         1       0.164906    1.0080   
   363      BACK_808      1         BCK        C08         1       -0.170705   12.0110   
   364      BACK_809      1         BCK        C09         1       -0.149194   12.0110   
   365      BACK_810      1         BCK        S0A         1       0.290780   32.0670   
   366      BACK_811      1         BCK        C0B         1       -0.151429   12.0110   
   367      BACK_894      1         BCK        H2P         1       0.164237    1.0080   
   368      BACK_812      1         BCK        C0C         1       -0.168082   12.0110   
   369      BACK_895      1         BCK        H2Q         1       0.163081    1.0080   
   370      BACK_9508      1         BCK        H33         1       0.183580    1.0080   
   371      side_818      1         SID        C0I         1        0.0061    12.0110   
   372      side_822      1         SID        C0N         1        0.0071    12.0110   
   373      side_823      1         SID        H0O         1        0.1092     1.0080   
   374      side_824      1         SID        H0P         1        0.1092     1.0080   
   375      side_825      1         SID        O0Q         1       -0.3841    15.9990   
   376      side_826      1         SID        H0R         1        0.0955     1.0080   
   377      side_827      1         SID        H0S         1        0.0955     1.0080   
   378      side_828      1         SID        C0T         1        0.0086    12.0110   
   379      side_829      1         SID        C0U         1        0.0098    12.0110   
   380      side_830      1         SID        H0V         1        0.0924     1.0080   
   381      side_831      1         SID        H0W         1        0.0924     1.0080   
   382      side_832      1         SID        O0X         2       -0.3853    15.9990   
   383      side_833      1         SID        H0Y         2        0.0916     1.0080   
   384      side_834      1         SID        H0Z         2        0.0916     1.0080   
   385      side_835      1         SID        C10         2        0.0086    12.0110   
   386      side_836      1         SID        C11         2        0.0034    12.0110   
   387      side_837      1         SID        H12         2        0.0914     1.0080   
   388      side_838      1         SID        H13         2        0.0914     1.0080   
   389      side_839      1         SID        O14         2       -0.3816    15.9990   
   390      side_840      1         SID        H15         2        0.0891     1.0080   
   391      side_841      1         SID        H16         2        0.0891     1.0080   
   392      side_842      1         SID        C17         2       -0.0440    12.0110   
   393      side_843      1         SID        H18         2        0.0831     1.0080   
   394      side_844      1         SID        H19         2        0.0831     1.0080   
   395      side_845      1         SID        H1A         2        0.0831     1.0080   
   396      side_818      1         SID        C0I         1        0.0061    12.0110   
   397      side_822      1         SID        C0N         1        0.0071    12.0110   
   398      side_823      1         SID        H0O         1        0.1092     1.0080   
   399      side_824      1         SID        H0P         1        0.1092     1.0080   
   400      side_825      1         SID        O0Q         1       -0.3841    15.9990   
   401      side_826      1         SID        H0R         1        0.0955     1.0080   
   402      side_827      1         SID        H0S         1        0.0955     1.0080   
   403      side_828      1         SID        C0T         1        0.0086    12.0110   
   404      side_829      1         SID        C0U         1        0.0098    12.0110   
   405      side_830      1         SID        H0V         1        0.0924     1.0080   
   406      side_831      1         SID        H0W         1        0.0924     1.0080   
   407      side_832      1         SID        O0X         2       -0.3853    15.9990   
   408      side_833      1         SID        H0Y         2        0.0916     1.0080   
   409      side_834      1         SID        H0Z         2        0.0916     1.0080   
   410      side_835      1         SID        C10         2        0.0086    12.0110   
   411      side_836      1         SID        C11         2        0.0034    12.0110   
   412      side_837      1         SID        H12         2        0.0914     1.0080   
   413      side_838      1         SID        H13         2        0.0914     1.0080   
   414      side_839      1         SID        O14         2       -0.3816    15.9990   
   415      side_840      1         SID        H15         2        0.0891     1.0080   
   416      side_841      1         SID        H16         2        0.0891     1.0080   
   417      side_842      1         SID        C17         2       -0.0440    12.0110   
   418      side_843      1         SID        H18         2        0.0831     1.0080   
   419      side_844      1         SID        H19         2        0.0831     1.0080   
   420      side_845      1         SID        H1A         2        0.0831     1.0080   
   421      side_818      1         SID        C0I         1        0.0061    12.0110   
   422      side_822      1         SID        C0N         1        0.0071    12.0110   
   423      side_823      1         SID        H0O         1        0.1092     1.0080   
   424      side_824      1         SID        H0P         1        0.1092     1.0080   
   425      side_825      1         SID        O0Q         1       -0.3841    15.9990   
   426      side_826      1         SID        H0R         1        0.0955     1.0080   
   427      side_827      1         SID        H0S         1        0.0955     1.0080   
   428      side_828      1         SID        C0T         1        0.0086    12.0110   
   429      side_829      1         SID        C0U         1        0.0098    12.0110   
   430      side_830      1         SID        H0V         1        0.0924     1.0080   
   431      side_831      1         SID        H0W         1        0.0924     1.0080   
   432      side_832      1         SID        O0X         2       -0.3853    15.9990   
   433      side_833      1         SID        H0Y         2        0.0916     1.0080   
   434      side_834      1         SID        H0Z         2        0.0916     1.0080   
   435      side_835      1         SID        C10         2        0.0086    12.0110   
   436      side_836      1         SID        C11         2        0.0034    12.0110   
   437      side_837      1         SID        H12         2        0.0914     1.0080   
   438      side_838      1         SID        H13         2        0.0914     1.0080   
   439      side_839      1         SID        O14         2       -0.3816    15.9990   
   440      side_840      1         SID        H15         2        0.0891     1.0080   
   441      side_841      1         SID        H16         2        0.0891     1.0080   
   442      side_842      1         SID        C17         2       -0.0440    12.0110   
   443      side_843      1         SID        H18         2        0.0831     1.0080   
   444      side_844      1         SID        H19         2        0.0831     1.0080   
   445      side_845      1         SID        H1A         2        0.0831     1.0080   
   446      side_818      1         SID        C0I         1        0.0061    12.0110   
   447      side_822      1         SID        C0N         1        0.0071    12.0110   
   448      side_823      1         SID        H0O         1        0.1092     1.0080   
   449      side_824      1         SID        H0P         1        0.1092     1.0080   
   450      side_825      1         SID        O0Q         1       -0.3841    15.9990   
   451      side_826      1         SID        H0R         1        0.0955     1.0080   
   452      side_827      1         SID        H0S         1        0.0955     1.0080   
   453      side_828      1         SID        C0T         1        0.0086    12.0110   
   454      side_829      1         SID        C0U         1        0.0098    12.0110   
   455      side_830      1         SID        H0V         1        0.0924     1.0080   
   456      side_831      1         SID        H0W         1        0.0924     1.0080   
   457      side_832      1         SID        O0X         2       -0.3853    15.9990   
   458      side_833      1         SID        H0Y         2        0.0916     1.0080   
   459      side_834      1         SID        H0Z         2        0.0916     1.0080   
   460      side_835      1         SID        C10         2        0.0086    12.0110   
   461      side_836      1         SID        C11         2        0.0034    12.0110   
   462      side_837      1         SID        H12         2        0.0914     1.0080   
   463      side_838      1         SID        H13         2        0.0914     1.0080   
   464      side_839      1         SID        O14         2       -0.1832    15.9990   
   465      side_840      1         SID        H15         2        0.0891     1.0080   
   466      side_841      1         SID        H16         2        0.0891     1.0080   
   467      side_842      1         SID        C17         2       -0.0440    12.0110   
   468      side_843      1         SID        H18         2        0.0831     1.0080   
   469      side_844      1         SID        H19         2        0.0831     1.0080   
   470      side_845      1         SID        H1A         2        0.083015     1.0080   
 
[ bonds ]
 13    15      1       0.1424    392459.200  
 16    15      1       0.1424    392459.200  
 17    15      1       0.1760    209200.000  
 18    16      1       0.1424    392459.200  
 19    16      1       0.1364    376560.000  
 20    18      1       0.1424    392459.200  
 22    20      1       0.1424    392459.200  
 23    22      1       0.1424    392459.200  
 24    22      1       0.1760    209200.000  
 25    23      1       0.1424    392459.200  
 27    25      1       0.1424    392459.200  
 29    27      1       0.1424    392459.200  
 30    29      1       0.1424    392459.200  
 31    29      1       0.1760    209200.000  
 32    30      1       0.1424    392459.200  
 34    32      1       0.1424    392459.200  
 36    34      1       0.1424    392459.200  
 37    36      1       0.1424    392459.200  
 38    36      1       0.1760    209200.000  
 39    37      1       0.1424    392459.200  
 41    39      1       0.1424    392459.200  
 42    39      1       0.1364    376560.000  
 43    41      1       0.1424    392459.200  
 44    43      1       0.1424    392459.200  
 45    43      1       0.1760    209200.000  
 46    44      1       0.1424    392459.200  
 47    44      1       0.1364    376560.000  
 48    46      1       0.1424    392459.200  
 50    48      1       0.1424    392459.200  
 51    50      1       0.1424    392459.200  
 52    50      1       0.1760    209200.000  
 53    51      1       0.1424    392459.200  
 55    52      1       0.1740    209200.000  
 10    13      1       0.1760    209200.000  
 11    13      1       0.1424    392459.200  
 14    11      1       0.1364    376560.000  
 8    10       1       0.1760    209200.000  
  9    8       1       0.1424    392459.200  
  6    8       1       0.1424    392459.200  
  3    6       1       0.1760    209200.000  
  4    6       1       0.1424    392459.200  
  1    3       1       0.1760    209200.000  
  2    1       1       0.1424    392459.200  
 184    1      1       0.1424    392459.200  
  5    2       1       0.1080    307105.600  
  7    4       1       0.1080    307105.600  
 12    9       1       0.1080    307105.600  
 21    18      1       0.1080    307105.600  
 26    23      1       0.1080    307105.600  
 28    25      1       0.1080    307105.600  
 33    30      1       0.1080    307105.600  
 35    32      1       0.1080    307105.600  
 40    37      1       0.1080    307105.600  
 49    46      1       0.1080    307105.600  
 54    51      1       0.1080    307105.600  
 56    53      1       0.1080    307105.600  
 57    55      1       0.1080    307105.600  
 20    17      1       0.1760    209200.000  
 27    24      1       0.1760    209200.000  
 34    31      1       0.1760    209200.000  
 41    38      1       0.1760    209200.000  
 48    45      1       0.1760    209200.000  
 55    53      1       0.1380    456892.800  
 9    11       1       0.1424    392459.200  
  2    4       1       0.1424    392459.200  
 47    44      1       0.1364    376560.000  
 58    47      1       0.1410    267776.000  
 59    58      1       0.1529    224262.400  
 60    58      1       0.1090    284512.000  
 61    58      1       0.1090    284512.000  
 62    59      1       0.1410    267776.000  
 63    59      1       0.1090    284512.000  
 64    59      1       0.1090    284512.000  
 65    62      1       0.1410    267776.000  
 66    65      1       0.1529    224262.400  
 67    65      1       0.1090    284512.000  
 68    65      1       0.1090    284512.000  
 69    66      1       0.1410    267776.000  
 70    66      1       0.1090    284512.000  
 71    66      1       0.1090    284512.000  
 72    69      1       0.1410    267776.000  
 73    72      1       0.1529    224262.400  
 74    72      1       0.1090    284512.000  
 75    72      1       0.1090    284512.000  
 76    73      1       0.1410    267776.000  
 77    73      1       0.1090    284512.000  
 78    73      1       0.1090    284512.000  
 79    76      1       0.1410    267776.000  
 80    79      1       0.1090    284512.000  
 81    79      1       0.1090    284512.000  
 82    79      1       0.1090    284512.000  
 19    16      1       0.1364    376560.000  
 83    19      1       0.1410    267776.000  
 84    83      1       0.1529    224262.400  
 85    83      1       0.1090    284512.000  
 86    83      1       0.1090    284512.000  
 87    84      1       0.1410    267776.000  
 88    84      1       0.1090    284512.000  
 89    84      1       0.1090    284512.000  
 90    87      1       0.1410    267776.000  
 91    90      1       0.1529    224262.400  
 92    90      1       0.1090    284512.000  
 93    90      1       0.1090    284512.000  
 94    91      1       0.1410    267776.000  
 95    91      1       0.1090    284512.000  
 96    91      1       0.1090    284512.000  
 97    94      1       0.1410    267776.000  
 98    97      1       0.1529    224262.400  
 99    97      1       0.1090    284512.000  
 100    97      1       0.1090    284512.000  
 101    98      1       0.1410    267776.000  
 102    98      1       0.1090    284512.000  
 103    98      1       0.1090    284512.000  
 104    101      1       0.1410    267776.000  
 105    104      1       0.1090    284512.000  
 106    104      1       0.1090    284512.000  
 107    104      1       0.1090    284512.000  
 42    39      1       0.1364    376560.000  
 108    42      1       0.1410    267776.000  
 109    108      1       0.1529    224262.400  
 110    108      1       0.1090    284512.000  
 111    108      1       0.1090    284512.000  
 112    109      1       0.1410    267776.000  
 113    109      1       0.1090    284512.000  
 114    109      1       0.1090    284512.000  
 115    112      1       0.1410    267776.000  
 116    115      1       0.1529    224262.400  
 117    115      1       0.1090    284512.000  
 118    115      1       0.1090    284512.000  
 119    116      1       0.1410    267776.000  
 120    116      1       0.1090    284512.000  
 121    116      1       0.1090    284512.000  
 122    119      1       0.1410    267776.000  
 123    122      1       0.1529    224262.400  
 124    122      1       0.1090    284512.000  
 125    122      1       0.1090    284512.000  
 126    123      1       0.1410    267776.000  
 127    123      1       0.1090    284512.000  
 128    123      1       0.1090    284512.000  
 129    126      1       0.1410    267776.000  
 130    129      1       0.1090    284512.000  
 131    129      1       0.1090    284512.000  
 132    129      1       0.1090    284512.000  
 14    11      1       0.1364    376560.000  
 133    14      1       0.1410    267776.000  
 134    133      1       0.1529    224262.400  
 135    133      1       0.1090    284512.000  
 136    133      1       0.1090    284512.000  
 137    134      1       0.1410    267776.000  
 138    134      1       0.1090    284512.000  
 139    134      1       0.1090    284512.000  
 140    137      1       0.1410    267776.000  
 141    140      1       0.1529    224262.400  
 142    140      1       0.1090    284512.000  
 143    140      1       0.1090    284512.000  
 144    141      1       0.1410    267776.000  
 145    141      1       0.1090    284512.000  
 146    141      1       0.1090    284512.000  
 147    144      1       0.1410    267776.000  
 148    147      1       0.1529    224262.400  
 149    147      1       0.1090    284512.000  
 150    147      1       0.1090    284512.000  
 151    148      1       0.1410    267776.000  
 152    148      1       0.1090    284512.000  
 153    148      1       0.1090    284512.000  
 154    151      1       0.1410    267776.000  
 155    154      1       0.1090    284512.000  
 156    154      1       0.1090    284512.000  
 157    154      1       0.1090    284512.000  
 170    172      1       0.1424    392459.200  
 173    172      1       0.1424    392459.200  
 174    172      1       0.1760    209200.000  
 175    173      1       0.1424    392459.200  
 176    173      1       0.1364    376560.000  
 177    175      1       0.1424    392459.200  
 179    177      1       0.1424    392459.200  
 180    179      1       0.1424    392459.200  
 181    179      1       0.1760    209200.000  
 182    180      1       0.1424    392459.200  
 184    182      1       0.1424    392459.200  
 167    170      1       0.1760    209200.000  
 168    170      1       0.1424    392459.200  
 171    168      1       0.1364    376560.000  
 165    167      1       0.1760    209200.000  
 166    165      1       0.1424    392459.200  
 163    165      1       0.1424    392459.200  
 160    163      1       0.1760    209200.000  
 161    163      1       0.1424    392459.200  
 158    160      1       0.1760    209200.000  
 159    158      1       0.1424    392459.200  
 262    158      1       0.1424    392459.200  
 162    159      1       0.1080    307105.600  
 164    161      1       0.1080    307105.600  
 169    166      1       0.1080    307105.600  
 178    175      1       0.1080    307105.600  
 183    180      1       0.1080    307105.600  
 185    182      1       0.1080    307105.600  
 177    174      1       0.1760    209200.000  
 184    181      1       0.1760    209200.000  
 166    168      1       0.1424    392459.200  
 159    161      1       0.1424    392459.200  
 176    173      1       0.1364    376560.000  
 186    176      1       0.1410    267776.000  
 187    186      1       0.1529    224262.400  
 188    186      1       0.1090    284512.000  
 189    186      1       0.1090    284512.000  
 190    187      1       0.1410    267776.000  
 191    187      1       0.1090    284512.000  
 192    187      1       0.1090    284512.000  
 193    190      1       0.1410    267776.000  
 194    193      1       0.1529    224262.400  
 195    193      1       0.1090    284512.000  
 196    193      1       0.1090    284512.000  
 197    194      1       0.1410    267776.000  
 198    194      1       0.1090    284512.000  
 199    194      1       0.1090    284512.000  
 200    197      1       0.1410    267776.000  
 201    200      1       0.1529    224262.400  
 202    200      1       0.1090    284512.000  
 203    200      1       0.1090    284512.000  
 204    201      1       0.1410    267776.000  
 205    201      1       0.1090    284512.000  
 206    201      1       0.1090    284512.000  
 207    204      1       0.1410    267776.000  
 208    207      1       0.1090    284512.000  
 209    207      1       0.1090    284512.000  
 210    207      1       0.1090    284512.000  
 171    168      1       0.1364    376560.000  
 211    171      1       0.1410    267776.000  
 212    211      1       0.1529    224262.400  
 213    211      1       0.1090    284512.000  
 214    211      1       0.1090    284512.000  
 215    212      1       0.1410    267776.000  
 216    212      1       0.1090    284512.000  
 217    212      1       0.1090    284512.000  
 218    215      1       0.1410    267776.000  
 219    218      1       0.1529    224262.400  
 220    218      1       0.1090    284512.000  
 221    218      1       0.1090    284512.000  
 222    219      1       0.1410    267776.000  
 223    219      1       0.1090    284512.000  
 224    219      1       0.1090    284512.000  
 225    222      1       0.1410    267776.000  
 226    225      1       0.1529    224262.400  
 227    225      1       0.1090    284512.000  
 228    225      1       0.1090    284512.000  
 229    226      1       0.1410    267776.000  
 230    226      1       0.1090    284512.000  
 231    226      1       0.1090    284512.000  
 232    229      1       0.1410    267776.000  
 233    232      1       0.1090    284512.000  
 234    232      1       0.1090    284512.000  
 235    232      1       0.1090    284512.000  
 248    250      1       0.1424    392459.200  
 251    250      1       0.1424    392459.200  
 252    250      1       0.1760    209200.000  
 253    251      1       0.1424    392459.200  
 254    251      1       0.1364    376560.000  
 255    253      1       0.1424    392459.200  
 257    255      1       0.1424    392459.200  
 258    257      1       0.1424    392459.200  
 259    257      1       0.1760    209200.000  
 260    258      1       0.1424    392459.200  
 262    260      1       0.1424    392459.200  
 245    248      1       0.1760    209200.000  
 246    248      1       0.1424    392459.200  
 249    246      1       0.1364    376560.000  
 243    245      1       0.1760    209200.000  
 244    243      1       0.1424    392459.200  
 241    243      1       0.1424    392459.200  
 238    241      1       0.1760    209200.000  
 239    241      1       0.1424    392459.200  
 236    238      1       0.1760    209200.000  
 237    236      1       0.1424    392459.200  
 368    236      1       0.1424    392459.200  
 240    237      1       0.1080    307105.600  
 242    239      1       0.1080    307105.600  
 247    244      1       0.1080    307105.600  
 256    253      1       0.1080    307105.600  
 261    258      1       0.1080    307105.600  
 263    260      1       0.1080    307105.600  
 255    252      1       0.1760    209200.000  
 262    259      1       0.1760    209200.000  
 244    246      1       0.1424    392459.200  
 237    239      1       0.1424    392459.200  
 254    251      1       0.1364    376560.000  
 264    254      1       0.1410    267776.000  
 265    264      1       0.1529    224262.400  
 266    264      1       0.1090    284512.000  
 267    264      1       0.1090    284512.000  
 268    265      1       0.1410    267776.000  
 269    265      1       0.1090    284512.000  
 270    265      1       0.1090    284512.000  
 271    268      1       0.1410    267776.000  
 272    271      1       0.1529    224262.400  
 273    271      1       0.1090    284512.000  
 274    271      1       0.1090    284512.000  
 275    272      1       0.1410    267776.000  
 276    272      1       0.1090    284512.000  
 277    272      1       0.1090    284512.000  
 278    275      1       0.1410    267776.000  
 279    278      1       0.1529    224262.400  
 280    278      1       0.1090    284512.000  
 281    278      1       0.1090    284512.000  
 282    279      1       0.1410    267776.000  
 283    279      1       0.1090    284512.000  
 284    279      1       0.1090    284512.000  
 285    282      1       0.1410    267776.000  
 286    285      1       0.1090    284512.000  
 287    285      1       0.1090    284512.000  
 288    285      1       0.1090    284512.000  
 249    246      1       0.1364    376560.000  
 289    249      1       0.1410    267776.000  
 290    289      1       0.1529    224262.400  
 291    289      1       0.1090    284512.000  
 292    289      1       0.1090    284512.000  
 293    290      1       0.1410    267776.000  
 294    290      1       0.1090    284512.000  
 295    290      1       0.1090    284512.000  
 296    293      1       0.1410    267776.000  
 297    296      1       0.1529    224262.400  
 298    296      1       0.1090    284512.000  
 299    296      1       0.1090    284512.000  
 300    297      1       0.1410    267776.000  
 301    297      1       0.1090    284512.000  
 302    297      1       0.1090    284512.000  
 303    300      1       0.1410    267776.000  
 304    303      1       0.1529    224262.400  
 305    303      1       0.1090    284512.000  
 306    303      1       0.1090    284512.000  
 307    304      1       0.1410    267776.000  
 308    304      1       0.1090    284512.000  
 309    304      1       0.1090    284512.000  
 310    307      1       0.1410    267776.000  
 311    310      1       0.1090    284512.000  
 312    310      1       0.1090    284512.000  
 313    310      1       0.1090    284512.000  
 354    356      1       0.1424    392459.200  
 357    356      1       0.1424    392459.200  
 358    356      1       0.1760    209200.000  
 359    357      1       0.1424    392459.200  
 360    357      1       0.1364    376560.000  
 361    359      1       0.1424    392459.200  
 363    361      1       0.1424    392459.200  
 364    363      1       0.1424    392459.200  
 365    363      1       0.1760    209200.000  
 366    364      1       0.1424    392459.200  
 368    366      1       0.1424    392459.200  
 351    354      1       0.1760    209200.000  
 352    354      1       0.1424    392459.200  
 355    352      1       0.1364    376560.000  
 349    351      1       0.1760    209200.000  
 350    349      1       0.1424    392459.200  
 347    349      1       0.1424    392459.200  
 344    347      1       0.1760    209200.000  
 345    347      1       0.1424    392459.200  
 342    344      1       0.1760    209200.000  
 343    342      1       0.1424    392459.200  
 340    342      1       0.1424    392459.200  
 337    340      1       0.1760    209200.000  
 338    340      1       0.1424    392459.200  
 335    337      1       0.1760    209200.000  
 336    335      1       0.1424    392459.200  
 333    335      1       0.1424    392459.200  
 330    333      1       0.1760    209200.000  
 331    333      1       0.1424    392459.200  
 328    330      1       0.1760    209200.000  
 329    328      1       0.1424    392459.200  
 332    329      1       0.1364    376560.000  
 326    328      1       0.1424    392459.200  
 323    326      1       0.1760    209200.000  
 324    326      1       0.1424    392459.200  
 327    324      1       0.1364    376560.000  
 321    323      1       0.1760    209200.000  
 322    321      1       0.1424    392459.200  
 319    321      1       0.1424    392459.200  
 316    319      1       0.1760    209200.000  
 317    319      1       0.1424    392459.200  
 314    316      1       0.1740    209200.000  
 315    314      1       0.1380    456892.800  
 318    315      1       0.1080    307105.600  
 320    317      1       0.1080    307105.600  
 325    322      1       0.1080    307105.600  
 334    331      1       0.1080    307105.600  
 339    336      1       0.1080    307105.600  
 341    338      1       0.1080    307105.600  
 346    343      1       0.1080    307105.600  
 348    345      1       0.1080    307105.600  
 353    350      1       0.1080    307105.600  
 362    359      1       0.1080    307105.600  
 367    364      1       0.1080    307105.600  
 369    366      1       0.1080    307105.600  
 370    314      1       0.1080    307105.600  
 361    358      1       0.1760    209200.000  
 368    365      1       0.1760    209200.000  
 350    352      1       0.1424    392459.200  
 343    345      1       0.1424    392459.200  
 336    338      1       0.1424    392459.200  
 329    331      1       0.1424    392459.200  
 322    324      1       0.1424    392459.200  
 315    317      1       0.1424    392459.200  
 360    357      1       0.1364    376560.000  
 371    360      1       0.1410    267776.000  
 372    371      1       0.1529    224262.400  
 373    371      1       0.1090    284512.000  
 374    371      1       0.1090    284512.000  
 375    372      1       0.1410    267776.000  
 376    372      1       0.1090    284512.000  
 377    372      1       0.1090    284512.000  
 378    375      1       0.1410    267776.000  
 379    378      1       0.1529    224262.400  
 380    378      1       0.1090    284512.000  
 381    378      1       0.1090    284512.000  
 382    379      1       0.1410    267776.000  
 383    379      1       0.1090    284512.000  
 384    379      1       0.1090    284512.000  
 385    382      1       0.1410    267776.000  
 386    385      1       0.1529    224262.400  
 387    385      1       0.1090    284512.000  
 388    385      1       0.1090    284512.000  
 389    386      1       0.1410    267776.000  
 390    386      1       0.1090    284512.000  
 391    386      1       0.1090    284512.000  
 392    389      1       0.1410    267776.000  
 393    392      1       0.1090    284512.000  
 394    392      1       0.1090    284512.000  
 395    392      1       0.1090    284512.000  
 355    352      1       0.1364    376560.000  
 396    355      1       0.1410    267776.000  
 397    396      1       0.1529    224262.400  
 398    396      1       0.1090    284512.000  
 399    396      1       0.1090    284512.000  
 400    397      1       0.1410    267776.000  
 401    397      1       0.1090    284512.000  
 402    397      1       0.1090    284512.000  
 403    400      1       0.1410    267776.000  
 404    403      1       0.1529    224262.400  
 405    403      1       0.1090    284512.000  
 406    403      1       0.1090    284512.000  
 407    404      1       0.1410    267776.000  
 408    404      1       0.1090    284512.000  
 409    404      1       0.1090    284512.000  
 410    407      1       0.1410    267776.000  
 411    410      1       0.1529    224262.400  
 412    410      1       0.1090    284512.000  
 413    410      1       0.1090    284512.000  
 414    411      1       0.1410    267776.000  
 415    411      1       0.1090    284512.000  
 416    411      1       0.1090    284512.000  
 417    414      1       0.1410    267776.000  
 418    417      1       0.1090    284512.000  
 419    417      1       0.1090    284512.000  
 420    417      1       0.1090    284512.000  
 332    329      1       0.1364    376560.000  
 421    332      1       0.1410    267776.000  
 422    421      1       0.1529    224262.400  
 423    421      1       0.1090    284512.000  
 424    421      1       0.1090    284512.000  
 425    422      1       0.1410    267776.000  
 426    422      1       0.1090    284512.000  
 427    422      1       0.1090    284512.000  
 428    425      1       0.1410    267776.000  
 429    428      1       0.1529    224262.400  
 430    428      1       0.1090    284512.000  
 431    428      1       0.1090    284512.000  
 432    429      1       0.1410    267776.000  
 433    429      1       0.1090    284512.000  
 434    429      1       0.1090    284512.000  
 435    432      1       0.1410    267776.000  
 436    435      1       0.1529    224262.400  
 437    435      1       0.1090    284512.000  
 438    435      1       0.1090    284512.000  
 439    436      1       0.1410    267776.000  
 440    436      1       0.1090    284512.000  
 441    436      1       0.1090    284512.000  
 442    439      1       0.1410    267776.000  
 443    442      1       0.1090    284512.000  
 444    442      1       0.1090    284512.000  
 445    442      1       0.1090    284512.000  
 327    324      1       0.1364    376560.000  
 446    327      1       0.1410    267776.000  
 447    446      1       0.1529    224262.400  
 448    446      1       0.1090    284512.000  
 449    446      1       0.1090    284512.000  
 450    447      1       0.1410    267776.000  
 451    447      1       0.1090    284512.000  
 452    447      1       0.1090    284512.000  
 453    450      1       0.1410    267776.000  
 454    453      1       0.1529    224262.400  
 455    453      1       0.1090    284512.000  
 456    453      1       0.1090    284512.000  
 457    454      1       0.1410    267776.000  
 458    454      1       0.1090    284512.000  
 459    454      1       0.1090    284512.000  
 460    457      1       0.1410    267776.000  
 461    460      1       0.1529    224262.400  
 462    460      1       0.1090    284512.000  
 463    460      1       0.1090    284512.000  
 464    461      1       0.1410    267776.000  
 465    461      1       0.1090    284512.000  
 466    461      1       0.1090    284512.000  
 467    464      1       0.1410    267776.000  
 468    467      1       0.1090    284512.000  
 469    467      1       0.1090    284512.000  
 470    467      1       0.1090    284512.000  
 
[ angles ]
 16    15    13      1       120.000    527.184  
 17    15    13      1       119.400    711.280  
 18    16    15      1       120.000    527.184  
 19    16    15      1       120.000    585.760  
 20    18    16      1       120.000    527.184  
 22    20    18      1       120.000    527.184  
 23    22    20      1       120.000    527.184  
 24    22    20      1       119.400    711.280  
 25    23    22      1       120.000    527.184  
 27    25    23      1       120.000    527.184  
 29    27    25      1       120.000    527.184  
 30    29    27      1       120.000    527.184  
 31    29    27      1       119.400    711.280  
 32    30    29      1       120.000    527.184  
 34    32    30      1       120.000    527.184  
 36    34    32      1       120.000    527.184  
 37    36    34      1       120.000    527.184  
 38    36    34      1       119.400    711.280  
 39    37    36      1       120.000    527.184  
 41    39    37      1       120.000    527.184  
 42    39    37      1       120.000    585.760  
 43    41    39      1       120.000    527.184  
 44    43    41      1       120.000    527.184  
 45    43    41      1       119.400    711.280  
 46    44    43      1       120.000    527.184  
 47    44    43      1       120.000    585.760  
 48    46    44      1       120.000    527.184  
 50    48    46      1       120.000    527.184  
 51    50    48      1       120.000    527.184  
 52    50    48      1       119.400    711.280  
 53    51    50      1       120.000    527.184  
 55    52    50      1       106.390    829.185  
 10    13    15      1       119.400    711.280  
 11    13    15      1       120.000    527.184  
 14    11    13      1       120.000    585.760  
 8    10    13      1       106.390    829.185  
 9    8    10      1       119.400    711.280  
 6    8    10      1       119.400    711.280  
 3    6    8      1       119.400    711.280  
 4    6    8      1       120.000    527.184  
 1    3    6      1       106.390    829.185  
 2    1    3      1       119.400    711.280  
 184    1    3      1       119.400    711.280  
 181    184    1      1       119.400    711.280  
 182    184    1      1       120.000    527.184  
 5    2    1      1       127.500    292.880  
 7    4    6      1       127.500    292.880  
 12    9    8      1       127.500    292.880  
 21    18    16      1       127.500    292.880  
 26    23    22      1       127.500    292.880  
 28    25    23      1       127.500    292.880  
 33    30    29      1       127.500    292.880  
 35    32    30      1       127.500    292.880  
 40    37    36      1       127.500    292.880  
 49    46    44      1       127.500    292.880  
 54    51    50      1       127.500    292.880  
 56    53    51      1       127.500    292.880  
 57    55    52      1       120.000    292.880  
 17    15    16      1       119.400    711.280  
 19    16    18      1       120.000    585.760  
 21    18    20      1       127.500    292.880  
 15    17    20      1       106.390    829.185  
 17    20    22      1       119.400    711.280  
 24    22    23      1       119.400    711.280  
 26    23    25      1       127.500    292.880  
 28    25    27      1       127.500    292.880  
 22    24    27      1       106.390    829.185  
 24    27    29      1       119.400    711.280  
 31    29    30      1       119.400    711.280  
 33    30    32      1       127.500    292.880  
 35    32    34      1       127.500    292.880  
 29    31    34      1       106.390    829.185  
 31    34    36      1       119.400    711.280  
 38    36    37      1       119.400    711.280  
 40    37    39      1       127.500    292.880  
 42    39    41      1       120.000    585.760  
 36    38    41      1       106.390    829.185  
 38    41    43      1       119.400    711.280  
 45    43    44      1       119.400    711.280  
 47    44    46      1       120.000    585.760  
 49    46    48      1       127.500    292.880  
 43    45    48      1       106.390    829.185  
 45    48    50      1       119.400    711.280  
 52    50    51      1       119.400    711.280  
 54    51    53      1       127.500    292.880  
 51    53    55      1       112.300    585.760  
 56    53    55      1       123.100    292.880  
 11    13    10      1       119.400    711.280  
 9    11    14      1       120.000    585.760  
 6    8    9      1       120.000    527.184  
 13    11    9      1       120.000    527.184  
 4    6    3      1       119.400    711.280  
 184    1    2      1       120.000    527.184  
 6    4    2      1       120.000    527.184  
 7    4    2      1       127.500    292.880  
 4    2    5      1       127.500    292.880  
 11    9    12      1       127.500    292.880  
 53    55    57      1       128.200    292.880  
 18    20    17      1       119.400    711.280  
 25    27    24      1       119.400    711.280  
 32    34    31      1       119.400    711.280  
 39    41    38      1       119.400    711.280  
 46    48    45      1       119.400    711.280  
 52    55    53      1       111.000    585.760  
 8    9    11      1       120.000    527.184  
 1    2    4      1       120.000    527.184  
 46    44    47      1       120.000    585.760  
 44    47    58      1       111.000    627.600  
 47    58    59      1       109.500    418.400  
 47    58    60      1       109.500    292.880  
 47    58    61      1       109.500    292.880  
 58    59    62      1       109.500    418.400  
 58    59    63      1       110.700    313.800  
 58    59    64      1       110.700    313.800  
 59    62    65      1       109.500    502.080  
 62    65    66      1       109.500    418.400  
 62    65    67      1       109.500    292.880  
 62    65    68      1       109.500    292.880  
 65    66    69      1       109.500    418.400  
 65    66    70      1       110.700    313.800  
 65    66    71      1       110.700    313.800  
 66    69    72      1       109.500    502.080  
 69    72    73      1       109.500    418.400  
 69    72    74      1       109.500    292.880  
 69    72    75      1       109.500    292.880  
 72    73    76      1       109.500    418.400  
 72    73    77      1       110.700    313.800  
 72    73    78      1       110.700    313.800  
 73    76    79      1       109.500    502.080  
 76    79    80      1       109.500    292.880  
 76    79    81      1       109.500    292.880  
 76    79    82      1       109.500    292.880  
 66    65    67      1       110.700    313.800  
 59    58    61      1       110.700    313.800  
 77    73    78      1       107.800    276.144  
 62    59    63      1       109.500    292.880  
 73    72    75      1       110.700    313.800  
 62    59    64      1       109.500    292.880  
 63    59    64      1       107.800    276.144  
 80    79    81      1       107.800    276.144  
 66    65    68      1       110.700    313.800  
 59    58    60      1       110.700    313.800  
 76    73    78      1       109.500    292.880  
 73    72    74      1       110.700    313.800  
 81    79    82      1       107.800    276.144  
 67    65    68      1       107.800    276.144  
 76    73    77      1       109.500    292.880  
 69    66    70      1       109.500    292.880  
 69    66    71      1       109.500    292.880  
 43    44    47      1       120.000    585.760  
 70    66    71      1       107.800    276.144  
 60    58    61      1       107.800    276.144  
 80    79    82      1       107.800    276.144  
 74    72    75      1       107.800    276.144  
 18    16    19      1       120.000    585.760  
 16    19    83      1       111.000    627.600  
 19    83    84      1       109.500    418.400  
 19    83    85      1       109.500    292.880  
 19    83    86      1       109.500    292.880  
 83    84    87      1       109.500    418.400  
 83    84    88      1       110.700    313.800  
 83    84    89      1       110.700    313.800  
 84    87    90      1       109.500    502.080  
 87    90    91      1       109.500    418.400  
 87    90    92      1       109.500    292.880  
 87    90    93      1       109.500    292.880  
 90    91    94      1       109.500    418.400  
 90    91    95      1       110.700    313.800  
 90    91    96      1       110.700    313.800  
 91    94    97      1       109.500    502.080  
 94    97    98      1       109.500    418.400  
 94    97    99      1       109.500    292.880  
 94    97    100      1       109.500    292.880  
 97    98    101      1       109.500    418.400  
 97    98    102      1       110.700    313.800  
 97    98    103      1       110.700    313.800  
 98    101    104      1       109.500    502.080  
 101    104    105      1       109.500    292.880  
 101    104    106      1       109.500    292.880  
 101    104    107      1       109.500    292.880  
 91    90    92      1       110.700    313.800  
 84    83    86      1       110.700    313.800  
 102    98    103      1       107.800    276.144  
 87    84    88      1       109.500    292.880  
 98    97    100      1       110.700    313.800  
 87    84    89      1       109.500    292.880  
 88    84    89      1       107.800    276.144  
 105    104    106      1       107.800    276.144  
 91    90    93      1       110.700    313.800  
 84    83    85      1       110.700    313.800  
 101    98    103      1       109.500    292.880  
 98    97    99      1       110.700    313.800  
 106    104    107      1       107.800    276.144  
 92    90    93      1       107.800    276.144  
 101    98    102      1       109.500    292.880  
 94    91    95      1       109.500    292.880  
 94    91    96      1       109.500    292.880  
 15    16    19      1       120.000    585.760  
 95    91    96      1       107.800    276.144  
 85    83    86      1       107.800    276.144  
 105    104    107      1       107.800    276.144  
 99    97    100      1       107.800    276.144  
 37    39    42      1       120.000    585.760  
 39    42    108      1       111.000    627.600  
 42    108    109      1       109.500    418.400  
 42    108    110      1       109.500    292.880  
 42    108    111      1       109.500    292.880  
 108    109    112      1       109.500    418.400  
 108    109    113      1       110.700    313.800  
 108    109    114      1       110.700    313.800  
 109    112    115      1       109.500    502.080  
 112    115    116      1       109.500    418.400  
 112    115    117      1       109.500    292.880  
 112    115    118      1       109.500    292.880  
 115    116    119      1       109.500    418.400  
 115    116    120      1       110.700    313.800  
 115    116    121      1       110.700    313.800  
 116    119    122      1       109.500    502.080  
 119    122    123      1       109.500    418.400  
 119    122    124      1       109.500    292.880  
 119    122    125      1       109.500    292.880  
 122    123    126      1       109.500    418.400  
 122    123    127      1       110.700    313.800  
 122    123    128      1       110.700    313.800  
 123    126    129      1       109.500    502.080  
 126    129    130      1       109.500    292.880  
 126    129    131      1       109.500    292.880  
 126    129    132      1       109.500    292.880  
 116    115    117      1       110.700    313.800  
 109    108    111      1       110.700    313.800  
 127    123    128      1       107.800    276.144  
 112    109    113      1       109.500    292.880  
 123    122    125      1       110.700    313.800  
 112    109    114      1       109.500    292.880  
 113    109    114      1       107.800    276.144  
 130    129    131      1       107.800    276.144  
 116    115    118      1       110.700    313.800  
 109    108    110      1       110.700    313.800  
 126    123    128      1       109.500    292.880  
 123    122    124      1       110.700    313.800  
 131    129    132      1       107.800    276.144  
 117    115    118      1       107.800    276.144  
 126    123    127      1       109.500    292.880  
 119    116    120      1       109.500    292.880  
 119    116    121      1       109.500    292.880  
 41    39    42      1       120.000    585.760  
 120    116    121      1       107.800    276.144  
 110    108    111      1       107.800    276.144  
 130    129    132      1       107.800    276.144  
 124    122    125      1       107.800    276.144  
 9    11    14      1       120.000    585.760  
 11    14    133      1       111.000    627.600  
 14    133    134      1       109.500    418.400  
 14    133    135      1       109.500    292.880  
 14    133    136      1       109.500    292.880  
 133    134    137      1       109.500    418.400  
 133    134    138      1       110.700    313.800  
 133    134    139      1       110.700    313.800  
 134    137    140      1       109.500    502.080  
 137    140    141      1       109.500    418.400  
 137    140    142      1       109.500    292.880  
 137    140    143      1       109.500    292.880  
 140    141    144      1       109.500    418.400  
 140    141    145      1       110.700    313.800  
 140    141    146      1       110.700    313.800  
 141    144    147      1       109.500    502.080  
 144    147    148      1       109.500    418.400  
 144    147    149      1       109.500    292.880  
 144    147    150      1       109.500    292.880  
 147    148    151      1       109.500    418.400  
 147    148    152      1       110.700    313.800  
 147    148    153      1       110.700    313.800  
 148    151    154      1       109.500    502.080  
 151    154    155      1       109.500    292.880  
 151    154    156      1       109.500    292.880  
 151    154    157      1       109.500    292.880  
 141    140    142      1       110.700    313.800  
 134    133    136      1       110.700    313.800  
 152    148    153      1       107.800    276.144  
 137    134    138      1       109.500    292.880  
 148    147    150      1       110.700    313.800  
 137    134    139      1       109.500    292.880  
 138    134    139      1       107.800    276.144  
 155    154    156      1       107.800    276.144  
 141    140    143      1       110.700    313.800  
 134    133    135      1       110.700    313.800  
 151    148    153      1       109.500    292.880  
 148    147    149      1       110.700    313.800  
 156    154    157      1       107.800    276.144  
 142    140    143      1       107.800    276.144  
 151    148    152      1       109.500    292.880  
 144    141    145      1       109.500    292.880  
 144    141    146      1       109.500    292.880  
 13    11    14      1       120.000    585.760  
 145    141    146      1       107.800    276.144  
 135    133    136      1       107.800    276.144  
 155    154    157      1       107.800    276.144  
 149    147    150      1       107.800    276.144  
 173    172    170      1       120.000    527.184  
 174    172    170      1       119.400    711.280  
 175    173    172      1       120.000    527.184  
 176    173    172      1       120.000    585.760  
 177    175    173      1       120.000    527.184  
 179    177    175      1       120.000    527.184  
 180    179    177      1       120.000    527.184  
 181    179    177      1       119.400    711.280  
 182    180    179      1       120.000    527.184  
 184    182    180      1       120.000    527.184  
 167    170    172      1       119.400    711.280  
 168    170    172      1       120.000    527.184  
 171    168    170      1       120.000    585.760  
 165    167    170      1       106.390    829.185  
 166    165    167      1       119.400    711.280  
 163    165    167      1       119.400    711.280  
 160    163    165      1       119.400    711.280  
 161    163    165      1       120.000    527.184  
 158    160    163      1       106.390    829.185  
 159    158    160      1       119.400    711.280  
 262    158    160      1       119.400    711.280  
 259    262    158      1       119.400    711.280  
 260    262    158      1       120.000    527.184  
 162    159    158      1       127.500    292.880  
 164    161    163      1       127.500    292.880  
 169    166    165      1       127.500    292.880  
 178    175    173      1       127.500    292.880  
 183    180    179      1       127.500    292.880  
 185    182    180      1       127.500    292.880  
 174    172    173      1       119.400    711.280  
 176    173    175      1       120.000    585.760  
 178    175    177      1       127.500    292.880  
 172    174    177      1       106.390    829.185  
 174    177    179      1       119.400    711.280  
 181    179    180      1       119.400    711.280  
 183    180    182      1       127.500    292.880  
 185    182    184      1       127.500    292.880  
 179    181    184      1       106.390    829.185  
 168    170    167      1       119.400    711.280  
 166    168    171      1       120.000    585.760  
 163    165    166      1       120.000    527.184  
 170    168    166      1       120.000    527.184  
 161    163    160      1       119.400    711.280  
 262    158    159      1       120.000    527.184  
 163    161    159      1       120.000    527.184  
 164    161    159      1       127.500    292.880  
 161    159    162      1       127.500    292.880  
 168    166    169      1       127.500    292.880  
 175    177    174      1       119.400    711.280  
 182    184    181      1       119.400    711.280  
 165    166    168      1       120.000    527.184  
 158    159    161      1       120.000    527.184  
 175    173    176      1       120.000    585.760  
 173    176    186      1       111.000    627.600  
 176    186    187      1       109.500    418.400  
 176    186    188      1       109.500    292.880  
 176    186    189      1       109.500    292.880  
 186    187    190      1       109.500    418.400  
 186    187    191      1       110.700    313.800  
 186    187    192      1       110.700    313.800  
 187    190    193      1       109.500    502.080  
 190    193    194      1       109.500    418.400  
 190    193    195      1       109.500    292.880  
 190    193    196      1       109.500    292.880  
 193    194    197      1       109.500    418.400  
 193    194    198      1       110.700    313.800  
 193    194    199      1       110.700    313.800  
 194    197    200      1       109.500    502.080  
 197    200    201      1       109.500    418.400  
 197    200    202      1       109.500    292.880  
 197    200    203      1       109.500    292.880  
 200    201    204      1       109.500    418.400  
 200    201    205      1       110.700    313.800  
 200    201    206      1       110.700    313.800  
 201    204    207      1       109.500    502.080  
 204    207    208      1       109.500    292.880  
 204    207    209      1       109.500    292.880  
 204    207    210      1       109.500    292.880  
 194    193    195      1       110.700    313.800  
 187    186    189      1       110.700    313.800  
 205    201    206      1       107.800    276.144  
 190    187    191      1       109.500    292.880  
 201    200    203      1       110.700    313.800  
 190    187    192      1       109.500    292.880  
 191    187    192      1       107.800    276.144  
 208    207    209      1       107.800    276.144  
 194    193    196      1       110.700    313.800  
 187    186    188      1       110.700    313.800  
 204    201    206      1       109.500    292.880  
 201    200    202      1       110.700    313.800  
 209    207    210      1       107.800    276.144  
 195    193    196      1       107.800    276.144  
 204    201    205      1       109.500    292.880  
 197    194    198      1       109.500    292.880  
 197    194    199      1       109.500    292.880  
 172    173    176      1       120.000    585.760  
 198    194    199      1       107.800    276.144  
 188    186    189      1       107.800    276.144  
 208    207    210      1       107.800    276.144  
 202    200    203      1       107.800    276.144  
 166    168    171      1       120.000    585.760  
 168    171    211      1       111.000    627.600  
 171    211    212      1       109.500    418.400  
 171    211    213      1       109.500    292.880  
 171    211    214      1       109.500    292.880  
 211    212    215      1       109.500    418.400  
 211    212    216      1       110.700    313.800  
 211    212    217      1       110.700    313.800  
 212    215    218      1       109.500    502.080  
 215    218    219      1       109.500    418.400  
 215    218    220      1       109.500    292.880  
 215    218    221      1       109.500    292.880  
 218    219    222      1       109.500    418.400  
 218    219    223      1       110.700    313.800  
 218    219    224      1       110.700    313.800  
 219    222    225      1       109.500    502.080  
 222    225    226      1       109.500    418.400  
 222    225    227      1       109.500    292.880  
 222    225    228      1       109.500    292.880  
 225    226    229      1       109.500    418.400  
 225    226    230      1       110.700    313.800  
 225    226    231      1       110.700    313.800  
 226    229    232      1       109.500    502.080  
 229    232    233      1       109.500    292.880  
 229    232    234      1       109.500    292.880  
 229    232    235      1       109.500    292.880  
 219    218    220      1       110.700    313.800  
 212    211    214      1       110.700    313.800  
 230    226    231      1       107.800    276.144  
 215    212    216      1       109.500    292.880  
 226    225    228      1       110.700    313.800  
 215    212    217      1       109.500    292.880  
 216    212    217      1       107.800    276.144  
 233    232    234      1       107.800    276.144  
 219    218    221      1       110.700    313.800  
 212    211    213      1       110.700    313.800  
 229    226    231      1       109.500    292.880  
 226    225    227      1       110.700    313.800  
 234    232    235      1       107.800    276.144  
 220    218    221      1       107.800    276.144  
 229    226    230      1       109.500    292.880  
 222    219    223      1       109.500    292.880  
 222    219    224      1       109.500    292.880  
 170    168    171      1       120.000    585.760  
 223    219    224      1       107.800    276.144  
 213    211    214      1       107.800    276.144  
 233    232    235      1       107.800    276.144  
 227    225    228      1       107.800    276.144  
 251    250    248      1       120.000    527.184  
 252    250    248      1       119.400    711.280  
 253    251    250      1       120.000    527.184  
 254    251    250      1       120.000    585.760  
 255    253    251      1       120.000    527.184  
 257    255    253      1       120.000    527.184  
 258    257    255      1       120.000    527.184  
 259    257    255      1       119.400    711.280  
 260    258    257      1       120.000    527.184  
 262    260    258      1       120.000    527.184  
 245    248    250      1       119.400    711.280  
 246    248    250      1       120.000    527.184  
 249    246    248      1       120.000    585.760  
 243    245    248      1       106.390    829.185  
 244    243    245      1       119.400    711.280  
 241    243    245      1       119.400    711.280  
 238    241    243      1       119.400    711.280  
 239    241    243      1       120.000    527.184  
 236    238    241      1       106.390    829.185  
 237    236    238      1       119.400    711.280  
 368    236    238      1       119.400    711.280  
 365    368    236      1       119.400    711.280  
 366    368    236      1       120.000    527.184  
 240    237    236      1       127.500    292.880  
 242    239    241      1       127.500    292.880  
 247    244    243      1       127.500    292.880  
 256    253    251      1       127.500    292.880  
 261    258    257      1       127.500    292.880  
 263    260    258      1       127.500    292.880  
 252    250    251      1       119.400    711.280  
 254    251    253      1       120.000    585.760  
 256    253    255      1       127.500    292.880  
 250    252    255      1       106.390    829.185  
 252    255    257      1       119.400    711.280  
 259    257    258      1       119.400    711.280  
 261    258    260      1       127.500    292.880  
 263    260    262      1       127.500    292.880  
 257    259    262      1       106.390    829.185  
 246    248    245      1       119.400    711.280  
 244    246    249      1       120.000    585.760  
 241    243    244      1       120.000    527.184  
 248    246    244      1       120.000    527.184  
 239    241    238      1       119.400    711.280  
 368    236    237      1       120.000    527.184  
 241    239    237      1       120.000    527.184  
 242    239    237      1       127.500    292.880  
 239    237    240      1       127.500    292.880  
 246    244    247      1       127.500    292.880  
 253    255    252      1       119.400    711.280  
 260    262    259      1       119.400    711.280  
 243    244    246      1       120.000    527.184  
 236    237    239      1       120.000    527.184  
 253    251    254      1       120.000    585.760  
 251    254    264      1       111.000    627.600  
 254    264    265      1       109.500    418.400  
 254    264    266      1       109.500    292.880  
 254    264    267      1       109.500    292.880  
 264    265    268      1       109.500    418.400  
 264    265    269      1       110.700    313.800  
 264    265    270      1       110.700    313.800  
 265    268    271      1       109.500    502.080  
 268    271    272      1       109.500    418.400  
 268    271    273      1       109.500    292.880  
 268    271    274      1       109.500    292.880  
 271    272    275      1       109.500    418.400  
 271    272    276      1       110.700    313.800  
 271    272    277      1       110.700    313.800  
 272    275    278      1       109.500    502.080  
 275    278    279      1       109.500    418.400  
 275    278    280      1       109.500    292.880  
 275    278    281      1       109.500    292.880  
 278    279    282      1       109.500    418.400  
 278    279    283      1       110.700    313.800  
 278    279    284      1       110.700    313.800  
 279    282    285      1       109.500    502.080  
 282    285    286      1       109.500    292.880  
 282    285    287      1       109.500    292.880  
 282    285    288      1       109.500    292.880  
 272    271    273      1       110.700    313.800  
 265    264    267      1       110.700    313.800  
 283    279    284      1       107.800    276.144  
 268    265    269      1       109.500    292.880  
 279    278    281      1       110.700    313.800  
 268    265    270      1       109.500    292.880  
 269    265    270      1       107.800    276.144  
 286    285    287      1       107.800    276.144  
 272    271    274      1       110.700    313.800  
 265    264    266      1       110.700    313.800  
 282    279    284      1       109.500    292.880  
 279    278    280      1       110.700    313.800  
 287    285    288      1       107.800    276.144  
 273    271    274      1       107.800    276.144  
 282    279    283      1       109.500    292.880  
 275    272    276      1       109.500    292.880  
 275    272    277      1       109.500    292.880  
 250    251    254      1       120.000    585.760  
 276    272    277      1       107.800    276.144  
 266    264    267      1       107.800    276.144  
 286    285    288      1       107.800    276.144  
 280    278    281      1       107.800    276.144  
 244    246    249      1       120.000    585.760  
 246    249    289      1       111.000    627.600  
 249    289    290      1       109.500    418.400  
 249    289    291      1       109.500    292.880  
 249    289    292      1       109.500    292.880  
 289    290    293      1       109.500    418.400  
 289    290    294      1       110.700    313.800  
 289    290    295      1       110.700    313.800  
 290    293    296      1       109.500    502.080  
 293    296    297      1       109.500    418.400  
 293    296    298      1       109.500    292.880  
 293    296    299      1       109.500    292.880  
 296    297    300      1       109.500    418.400  
 296    297    301      1       110.700    313.800  
 296    297    302      1       110.700    313.800  
 297    300    303      1       109.500    502.080  
 300    303    304      1       109.500    418.400  
 300    303    305      1       109.500    292.880  
 300    303    306      1       109.500    292.880  
 303    304    307      1       109.500    418.400  
 303    304    308      1       110.700    313.800  
 303    304    309      1       110.700    313.800  
 304    307    310      1       109.500    502.080  
 307    310    311      1       109.500    292.880  
 307    310    312      1       109.500    292.880  
 307    310    313      1       109.500    292.880  
 297    296    298      1       110.700    313.800  
 290    289    292      1       110.700    313.800  
 308    304    309      1       107.800    276.144  
 293    290    294      1       109.500    292.880  
 304    303    306      1       110.700    313.800  
 293    290    295      1       109.500    292.880  
 294    290    295      1       107.800    276.144  
 311    310    312      1       107.800    276.144  
 297    296    299      1       110.700    313.800  
 290    289    291      1       110.700    313.800  
 307    304    309      1       109.500    292.880  
 304    303    305      1       110.700    313.800  
 312    310    313      1       107.800    276.144  
 298    296    299      1       107.800    276.144  
 307    304    308      1       109.500    292.880  
 300    297    301      1       109.500    292.880  
 300    297    302      1       109.500    292.880  
 248    246    249      1       120.000    585.760  
 301    297    302      1       107.800    276.144  
 291    289    292      1       107.800    276.144  
 311    310    313      1       107.800    276.144  
 305    303    306      1       107.800    276.144  
 357    356    354      1       120.000    527.184  
 358    356    354      1       119.400    711.280  
 359    357    356      1       120.000    527.184  
 360    357    356      1       120.000    585.760  
 361    359    357      1       120.000    527.184  
 363    361    359      1       120.000    527.184  
 364    363    361      1       120.000    527.184  
 365    363    361      1       119.400    711.280  
 366    364    363      1       120.000    527.184  
 368    366    364      1       120.000    527.184  
 351    354    356      1       119.400    711.280  
 352    354    356      1       120.000    527.184  
 355    352    354      1       120.000    585.760  
 349    351    354      1       106.390    829.185  
 350    349    351      1       119.400    711.280  
 347    349    351      1       119.400    711.280  
 344    347    349      1       119.400    711.280  
 345    347    349      1       120.000    527.184  
 342    344    347      1       106.390    829.185  
 343    342    344      1       119.400    711.280  
 340    342    344      1       119.400    711.280  
 337    340    342      1       119.400    711.280  
 338    340    342      1       120.000    527.184  
 335    337    340      1       106.390    829.185  
 336    335    337      1       119.400    711.280  
 333    335    337      1       119.400    711.280  
 330    333    335      1       119.400    711.280  
 331    333    335      1       120.000    527.184  
 328    330    333      1       106.390    829.185  
 329    328    330      1       119.400    711.280  
 332    329    328      1       120.000    585.760  
 326    328    330      1       119.400    711.280  
 323    326    328      1       119.400    711.280  
 324    326    328      1       120.000    527.184  
 327    324    326      1       120.000    585.760  
 321    323    326      1       106.390    829.185  
 322    321    323      1       119.400    711.280  
 319    321    323      1       119.400    711.280  
 316    319    321      1       119.400    711.280  
 317    319    321      1       120.000    527.184  
 314    316    319      1       106.390    829.185  
 315    314    316      1       111.000    585.760  
 318    315    314      1       123.100    292.880  
 320    317    319      1       127.500    292.880  
 325    322    321      1       127.500    292.880  
 334    331    333      1       127.500    292.880  
 339    336    335      1       127.500    292.880  
 341    338    340      1       127.500    292.880  
 346    343    342      1       127.500    292.880  
 348    345    347      1       127.500    292.880  
 353    350    349      1       127.500    292.880  
 362    359    357      1       127.500    292.880  
 367    364    363      1       127.500    292.880  
 369    366    364      1       127.500    292.880  
 370    314    316      1       120.000    292.880  
 358    356    357      1       119.400    711.280  
 360    357    359      1       120.000    585.760  
 362    359    361      1       127.500    292.880  
 356    358    361      1       106.390    829.185  
 358    361    363      1       119.400    711.280  
 365    363    364      1       119.400    711.280  
 367    364    366      1       127.500    292.880  
 369    366    368      1       127.500    292.880  
 363    365    368      1       106.390    829.185  
 352    354    351      1       119.400    711.280  
 350    352    355      1       120.000    585.760  
 347    349    350      1       120.000    527.184  
 354    352    350      1       120.000    527.184  
 345    347    344      1       119.400    711.280  
 340    342    343      1       120.000    527.184  
 347    345    343      1       120.000    527.184  
 348    345    343      1       127.500    292.880  
 338    340    337      1       119.400    711.280  
 333    335    336      1       120.000    527.184  
 340    338    336      1       120.000    527.184  
 341    338    336      1       127.500    292.880  
 331    333    330      1       119.400    711.280  
 326    328    329      1       120.000    527.184  
 333    331    329      1       120.000    527.184  
 334    331    329      1       127.500    292.880  
 331    329    332      1       120.000    585.760  
 324    326    323      1       119.400    711.280  
 322    324    327      1       120.000    585.760  
 319    321    322      1       120.000    527.184  
 326    324    322      1       120.000    527.184  
 317    319    316      1       119.400    711.280  
 370    314    315      1       128.200    292.880  
 319    317    315      1       120.000    527.184  
 320    317    315      1       127.500    292.880  
 317    315    318      1       127.500    292.880  
 324    322    325      1       127.500    292.880  
 338    336    339      1       127.500    292.880  
 345    343    346      1       127.500    292.880  
 352    350    353      1       127.500    292.880  
 359    361    358      1       119.400    711.280  
 366    368    365      1       119.400    711.280  
 349    350    352      1       120.000    527.184  
 342    343    345      1       120.000    527.184  
 335    336    338      1       120.000    527.184  
 328    329    331      1       120.000    527.184  
 321    322    324      1       120.000    527.184  
 314    315    317      1       112.300    585.760  
 359    357    360      1       120.000    585.760  
 357    360    371      1       111.000    627.600  
 360    371    372      1       109.500    418.400  
 360    371    373      1       109.500    292.880  
 360    371    374      1       109.500    292.880  
 371    372    375      1       109.500    418.400  
 371    372    376      1       110.700    313.800  
 371    372    377      1       110.700    313.800  
 372    375    378      1       109.500    502.080  
 375    378    379      1       109.500    418.400  
 375    378    380      1       109.500    292.880  
 375    378    381      1       109.500    292.880  
 378    379    382      1       109.500    418.400  
 378    379    383      1       110.700    313.800  
 378    379    384      1       110.700    313.800  
 379    382    385      1       109.500    502.080  
 382    385    386      1       109.500    418.400  
 382    385    387      1       109.500    292.880  
 382    385    388      1       109.500    292.880  
 385    386    389      1       109.500    418.400  
 385    386    390      1       110.700    313.800  
 385    386    391      1       110.700    313.800  
 386    389    392      1       109.500    502.080  
 389    392    393      1       109.500    292.880  
 389    392    394      1       109.500    292.880  
 389    392    395      1       109.500    292.880  
 379    378    380      1       110.700    313.800  
 372    371    374      1       110.700    313.800  
 390    386    391      1       107.800    276.144  
 375    372    376      1       109.500    292.880  
 386    385    388      1       110.700    313.800  
 375    372    377      1       109.500    292.880  
 376    372    377      1       107.800    276.144  
 393    392    394      1       107.800    276.144  
 379    378    381      1       110.700    313.800  
 372    371    373      1       110.700    313.800  
 389    386    391      1       109.500    292.880  
 386    385    387      1       110.700    313.800  
 394    392    395      1       107.800    276.144  
 380    378    381      1       107.800    276.144  
 389    386    390      1       109.500    292.880  
 382    379    383      1       109.500    292.880  
 382    379    384      1       109.500    292.880  
 356    357    360      1       120.000    585.760  
 383    379    384      1       107.800    276.144  
 373    371    374      1       107.800    276.144  
 393    392    395      1       107.800    276.144  
 387    385    388      1       107.800    276.144  
 350    352    355      1       120.000    585.760  
 352    355    396      1       111.000    627.600  
 355    396    397      1       109.500    418.400  
 355    396    398      1       109.500    292.880  
 355    396    399      1       109.500    292.880  
 396    397    400      1       109.500    418.400  
 396    397    401      1       110.700    313.800  
 396    397    402      1       110.700    313.800  
 397    400    403      1       109.500    502.080  
 400    403    404      1       109.500    418.400  
 400    403    405      1       109.500    292.880  
 400    403    406      1       109.500    292.880  
 403    404    407      1       109.500    418.400  
 403    404    408      1       110.700    313.800  
 403    404    409      1       110.700    313.800  
 404    407    410      1       109.500    502.080  
 407    410    411      1       109.500    418.400  
 407    410    412      1       109.500    292.880  
 407    410    413      1       109.500    292.880  
 410    411    414      1       109.500    418.400  
 410    411    415      1       110.700    313.800  
 410    411    416      1       110.700    313.800  
 411    414    417      1       109.500    502.080  
 414    417    418      1       109.500    292.880  
 414    417    419      1       109.500    292.880  
 414    417    420      1       109.500    292.880  
 404    403    405      1       110.700    313.800  
 397    396    399      1       110.700    313.800  
 415    411    416      1       107.800    276.144  
 400    397    401      1       109.500    292.880  
 411    410    413      1       110.700    313.800  
 400    397    402      1       109.500    292.880  
 401    397    402      1       107.800    276.144  
 418    417    419      1       107.800    276.144  
 404    403    406      1       110.700    313.800  
 397    396    398      1       110.700    313.800  
 414    411    416      1       109.500    292.880  
 411    410    412      1       110.700    313.800  
 419    417    420      1       107.800    276.144  
 405    403    406      1       107.800    276.144  
 414    411    415      1       109.500    292.880  
 407    404    408      1       109.500    292.880  
 407    404    409      1       109.500    292.880  
 354    352    355      1       120.000    585.760  
 408    404    409      1       107.800    276.144  
 398    396    399      1       107.800    276.144  
 418    417    420      1       107.800    276.144  
 412    410    413      1       107.800    276.144  
 331    329    332      1       120.000    585.760  
 329    332    421      1       111.000    627.600  
 332    421    422      1       109.500    418.400  
 332    421    423      1       109.500    292.880  
 332    421    424      1       109.500    292.880  
 421    422    425      1       109.500    418.400  
 421    422    426      1       110.700    313.800  
 421    422    427      1       110.700    313.800  
 422    425    428      1       109.500    502.080  
 425    428    429      1       109.500    418.400  
 425    428    430      1       109.500    292.880  
 425    428    431      1       109.500    292.880  
 428    429    432      1       109.500    418.400  
 428    429    433      1       110.700    313.800  
 428    429    434      1       110.700    313.800  
 429    432    435      1       109.500    502.080  
 432    435    436      1       109.500    418.400  
 432    435    437      1       109.500    292.880  
 432    435    438      1       109.500    292.880  
 435    436    439      1       109.500    418.400  
 435    436    440      1       110.700    313.800  
 435    436    441      1       110.700    313.800  
 436    439    442      1       109.500    502.080  
 439    442    443      1       109.500    292.880  
 439    442    444      1       109.500    292.880  
 439    442    445      1       109.500    292.880  
 429    428    430      1       110.700    313.800  
 422    421    424      1       110.700    313.800  
 440    436    441      1       107.800    276.144  
 425    422    426      1       109.500    292.880  
 436    435    438      1       110.700    313.800  
 425    422    427      1       109.500    292.880  
 426    422    427      1       107.800    276.144  
 443    442    444      1       107.800    276.144  
 429    428    431      1       110.700    313.800  
 422    421    423      1       110.700    313.800  
 439    436    441      1       109.500    292.880  
 436    435    437      1       110.700    313.800  
 444    442    445      1       107.800    276.144  
 430    428    431      1       107.800    276.144  
 439    436    440      1       109.500    292.880  
 432    429    433      1       109.500    292.880  
 432    429    434      1       109.500    292.880  
 328    329    332      1       120.000    585.760  
 433    429    434      1       107.800    276.144  
 423    421    424      1       107.800    276.144  
 443    442    445      1       107.800    276.144  
 437    435    438      1       107.800    276.144  
 322    324    327      1       120.000    585.760  
 324    327    446      1       111.000    627.600  
 327    446    447      1       109.500    418.400  
 327    446    448      1       109.500    292.880  
 327    446    449      1       109.500    292.880  
 446    447    450      1       109.500    418.400  
 446    447    451      1       110.700    313.800  
 446    447    452      1       110.700    313.800  
 447    450    453      1       109.500    502.080  
 450    453    454      1       109.500    418.400  
 450    453    455      1       109.500    292.880  
 450    453    456      1       109.500    292.880  
 453    454    457      1       109.500    418.400  
 453    454    458      1       110.700    313.800  
 453    454    459      1       110.700    313.800  
 454    457    460      1       109.500    502.080  
 457    460    461      1       109.500    418.400  
 457    460    462      1       109.500    292.880  
 457    460    463      1       109.500    292.880  
 460    461    464      1       109.500    418.400  
 460    461    465      1       110.700    313.800  
 460    461    466      1       110.700    313.800  
 461    464    467      1       109.500    502.080  
 464    467    468      1       109.500    292.880  
 464    467    469      1       109.500    292.880  
 464    467    470      1       109.500    292.880  
 454    453    455      1       110.700    313.800  
 447    446    449      1       110.700    313.800  
 465    461    466      1       107.800    276.144  
 450    447    451      1       109.500    292.880  
 461    460    463      1       110.700    313.800  
 450    447    452      1       109.500    292.880  
 451    447    452      1       107.800    276.144  
 468    467    469      1       107.800    276.144  
 454    453    456      1       110.700    313.800  
 447    446    448      1       110.700    313.800  
 464    461    466      1       109.500    292.880  
 461    460    462      1       110.700    313.800  
 469    467    470      1       107.800    276.144  
 455    453    456      1       107.800    276.144  
 464    461    465      1       109.500    292.880  
 457    454    458      1       109.500    292.880  
 457    454    459      1       109.500    292.880  
 326    324    327      1       120.000    585.760  
 458    454    459      1       107.800    276.144  
 448    446    449      1       107.800    276.144  
 468    467    470      1       107.800    276.144  
 462    460    463      1       107.800    276.144  
 
[ dihedrals ]
 18    16    15    13      3       30.334    0.000    -30.334    -0.000    -0.000    0.000  
 19    16    15    13      3       9.079    0.000    -9.079    -0.000    -0.000    0.000  
 20    18    16    15      3       30.334    0.000    -30.334    -0.000    -0.000    0.000  
 22    20    18    16      3       30.334    0.000    -30.334    -0.000    -0.000    0.000  
 23    22    20    18      3       11.476    -6.8000    -29.672    2.7457    11.317    -2.3483    ;    T-G    (C-C)  
 24    22    20    18      3       30.334    0.000    -30.334    -0.000    -0.000    0.000  
 25    23    22    20      3       30.334    0.000    -30.334    -0.000    -0.000    0.000  
 27    25    23    22      3       30.334    0.000    -30.334    -0.000    -0.000    0.000  
 29    27    25    23      3       30.334    0.000    -30.334    -0.000    -0.000    0.000  
 30    29    27    25      3       30.334    0.000    -30.334    -0.000    -0.000    0.000  
 31    29    27    25      3       30.334    0.000    -30.334    -0.000    -0.000    0.000  
 32    30    29    27      3       30.334    0.000    -30.334    -0.000    -0.000    0.000  
 34    32    30    29      3       30.334    0.000    -30.334    -0.000    -0.000    0.000  
 36    34    32    30      3       30.334    0.000    -30.334    -0.000    -0.000    0.000  
 37    36    34    32      3       11.476    -6.8000    -29.672    2.7457    11.317    -2.3483    ;    T-G    (C-C)  
 38    36    34    32      3       30.334    0.000    -30.334    -0.000    -0.000    0.000  
 39    37    36    34      3       30.334    0.000    -30.334    -0.000    -0.000    0.000  
 41    39    37    36      3       30.334    0.000    -30.334    -0.000    -0.000    0.000  
 42    39    37    36      3       9.079    0.000    -9.079    -0.000    -0.000    0.000  
 43    41    39    37      3       30.334    0.000    -30.334    -0.000    -0.000    0.000  
 44    43    41    39      3       8.2521    14.350    -8.5922    -1.9756    -10.209    -3.1398    ;    G-G    (C-C)  
 45    43    41    39      3       30.334    0.000    -30.334    -0.000    -0.000    0.000  
 46    44    43    41      3       30.334    0.000    -30.334    -0.000    -0.000    0.000  
 47    44    43    41      3       9.079    0.000    -9.079    -0.000    -0.000    0.000  
 48    46    44    43      3       30.334    0.000    -30.334    -0.000    -0.000    0.000  
 50    48    46    44      3       30.334    0.000    -30.334    -0.000    -0.000    0.000  
 51    50    48    46      3       11.476    -6.8000    -29.672    2.7457    11.317    -2.3483    ;    T-G    (C-C)  
 52    50    48    46      3       30.334    0.000    -30.334    -0.000    -0.000    0.000  
 53    51    50    48      3       30.334    0.000    -30.334    -0.000    -0.000    0.000  
 55    52    50    48      3       30.334    0.000    -30.334    -0.000    -0.000    0.000  
 10    13    15    16      3       0.000    0.000    0.000    0.000    0.000    0.000  
 11    13    15    16      3       8.2521    14.350    -8.5922    -1.9756    -10.209    -3.1398    ;    G-G    (C-C)  
 14    11    13    15      3       9.079    0.000    -9.079    -0.000    -0.000    0.000  
 8    10    13    15      3       30.334    0.000    -30.334    -0.000    -0.000    0.000  
 9    8    10    13      3       30.334    0.000    -30.334    -0.000    -0.000    0.000  
 6    8    10    13      3       30.334    0.000    -30.334    -0.000    -0.000    0.000  
 3    6    8    10      3       30.334    0.000    -30.334    -0.000    -0.000    0.000  
 4    6    8    10      3       30.334    0.000    -30.334    -0.000    -0.000    0.000  
 1    3    6    8      3       30.334    0.000    -30.334    -0.000    -0.000    0.000  
 2    1    3    6      3       30.334    0.000    -30.334    -0.000    -0.000    0.000  
 184    1    3    6      3       30.334    0.000    -30.334    -0.000    -0.000    0.000  
 181    184    1    3      3       10.941    -3.8128    -29.156    -0.1003    11.570    -0.9840    ;    T-T    (S-S)  
 182    184    1    3      3       30.334    0.000    -30.334    -0.000    -0.000    0.000  
 179    181    184    1      3       30.334    0.000    -30.334    -0.000    -0.000    0.000  
 185    182    184    1      3       30.334    0.000    -30.334    -0.000    -0.000    0.000  
 5    2    1    3      3       30.334    0.000    -30.334    -0.000    -0.000    0.000  
 7    4    6    8      3       30.334    0.000    -30.334    -0.000    -0.000    0.000  
 12    9    8    10      3       30.334    0.000    -30.334    -0.000    -0.000    0.000  
 21    18    16    15      3       30.334    0.000    -30.334    -0.000    -0.000    0.000  
 26    23    22    20      3       30.334    0.000    -30.334    -0.000    -0.000    0.000  
 28    25    23    22      3       30.334    0.000    -30.334    -0.000    -0.000    0.000  
 33    30    29    27      3       30.334    0.000    -30.334    -0.000    -0.000    0.000  
 35    32    30    29      3       30.334    0.000    -30.334    -0.000    -0.000    0.000  
 40    37    36    34      3       30.334    0.000    -30.334    -0.000    -0.000    0.000  
 49    46    44    43      3       30.334    0.000    -30.334    -0.000    -0.000    0.000  
 54    51    50    48      3       30.334    0.000    -30.334    -0.000    -0.000    0.000  
 56    53    51    50      3       30.334    0.000    -30.334    -0.000    -0.000    0.000  
 57    55    52    50      3       30.334    0.000    -30.334    -0.000    -0.000    0.000  
 20    17    15    13      3       30.334    0.000    -30.334    -0.000    -0.000    0.000  
 20    17    15    16      3       30.334    0.000    -30.334    -0.000    -0.000    0.000  
 10    13    15    17      3       0.000    0.000    0.000    0.000    0.000    0.000  
 11    13    15    17      3       0.000    0.000    0.000    0.000    0.000    0.000  
 18    16    15    17      3       30.334    0.000    -30.334    -0.000    -0.000    0.000  
 19    16    15    17      3       9.079    0.000    -9.079    -0.000    -0.000    0.000  
 20    18    16    19      3       9.079    0.000    -9.079    -0.000    -0.000    0.000  
 21    18    16    19      3       9.079    0.000    -9.079    -0.000    -0.000    0.000  
 21    18    20    22      3       30.334    0.000    -30.334    -0.000    -0.000    0.000  
 15    17    20    22      3       30.334    0.000    -30.334    -0.000    -0.000    0.000  
 17    20    22    23      3       30.334    0.000    -30.334    -0.000    -0.000    0.000  
 27    24    22    23      3       30.334    0.000    -30.334    -0.000    -0.000    0.000  
 17    20    22    24      3       30.334    0.000    -30.334    -0.000    -0.000    0.000  
 25    23    22    24      3       30.334    0.000    -30.334    -0.000    -0.000    0.000  
 26    23    22    24      3       30.334    0.000    -30.334    -0.000    -0.000    0.000  
 26    23    25    27      3       30.334    0.000    -30.334    -0.000    -0.000    0.000  
 20    22    24    27      3       30.334    0.000    -30.334    -0.000    -0.000    0.000  
 28    25    27    29      3       30.334    0.000    -30.334    -0.000    -0.000    0.000  
 22    24    27    29      3       30.334    0.000    -30.334    -0.000    -0.000    0.000  
 24    27    29    30      3       30.334    0.000    -30.334    -0.000    -0.000    0.000  
 34    31    29    30      3       30.334    0.000    -30.334    -0.000    -0.000    0.000  
 24    27    29    31      3       10.941    -3.8128    -29.156    -0.1003    11.570    -0.9840    ;    T-T    (S-S)  
 32    30    29    31      3       30.334    0.000    -30.334    -0.000    -0.000    0.000  
 33    30    29    31      3       30.334    0.000    -30.334    -0.000    -0.000    0.000  
 33    30    32    34      3       30.334    0.000    -30.334    -0.000    -0.000    0.000  
 27    29    31    34      3       30.334    0.000    -30.334    -0.000    -0.000    0.000  
 35    32    34    36      3       30.334    0.000    -30.334    -0.000    -0.000    0.000  
 29    31    34    36      3       30.334    0.000    -30.334    -0.000    -0.000    0.000  
 31    34    36    37      3       30.334    0.000    -30.334    -0.000    -0.000    0.000  
 41    38    36    37      3       30.334    0.000    -30.334    -0.000    -0.000    0.000  
 31    34    36    38      3       30.334    0.000    -30.334    -0.000    -0.000    0.000  
 39    37    36    38      3       30.334    0.000    -30.334    -0.000    -0.000    0.000  
 40    37    36    38      3       30.334    0.000    -30.334    -0.000    -0.000    0.000  
 40    37    39    41      3       30.334    0.000    -30.334    -0.000    -0.000    0.000  
 34    36    38    41      3       30.334    0.000    -30.334    -0.000    -0.000    0.000  
 40    37    39    42      3       9.079    0.000    -9.079    -0.000    -0.000    0.000  
 38    41    39    42      3       9.079    0.000    -9.079    -0.000    -0.000    0.000  
 43    41    39    42      3       9.079    0.000    -9.079    -0.000    -0.000    0.000  
 36    38    41    43      3       30.334    0.000    -30.334    -0.000    -0.000    0.000  
 38    41    43    44      3       30.334    0.000    -30.334    -0.000    -0.000    0.000  
 48    45    43    44      3       30.334    0.000    -30.334    -0.000    -0.000    0.000  
 38    41    43    45      3       30.334    0.000    -30.334    -0.000    -0.000    0.000  
 46    44    43    45      3       30.334    0.000    -30.334    -0.000    -0.000    0.000  
 47    44    43    45      3       9.079    0.000    -9.079    -0.000    -0.000    0.000  
 48    46    44    47      3       9.079    0.000    -9.079    -0.000    -0.000    0.000  
 49    46    44    47      3       9.079    0.000    -9.079    -0.000    -0.000    0.000  
 41    43    45    48      3       30.334    0.000    -30.334    -0.000    -0.000    0.000  
 49    46    48    50      3       30.334    0.000    -30.334    -0.000    -0.000    0.000  
 43    45    48    50      3       30.334    0.000    -30.334    -0.000    -0.000    0.000  
 45    48    50    51      3       30.334    0.000    -30.334    -0.000    -0.000    0.000  
 55    52    50    51      3       30.334    0.000    -30.334    -0.000    -0.000    0.000  
 45    48    50    52      3       30.334    0.000    -30.334    -0.000    -0.000    0.000  
 53    51    50    52      3       30.334    0.000    -30.334    -0.000    -0.000    0.000  
 54    51    50    52      3       30.334    0.000    -30.334    -0.000    -0.000    0.000  
 50    51    53    55      3       30.334    0.000    -30.334    -0.000    -0.000    0.000  
 54    51    53    55      3       30.334    0.000    -30.334    -0.000    -0.000    0.000  
 14    11    13    10      3       9.079    0.000    -9.079    -0.000    -0.000    0.000  
 9    11    13    10      3       30.334    0.000    -30.334    -0.000    -0.000    0.000  
 8    10    13    11      3       30.334    0.000    -30.334    -0.000    -0.000    0.000  
 8    9    11    14      3       9.079    0.000    -9.079    -0.000    -0.000    0.000  
 12    9    11    14      3       9.079    0.000    -9.079    -0.000    -0.000    0.000  
 3    6    8    9      3       30.334    0.000    -30.334    -0.000    -0.000    0.000  
 4    6    8    9      3       11.476    -6.8000    -29.672    2.7457    11.317    -2.3483    ;    T-G    (C-C)  
 15    13    11    9      3       30.334    0.000    -30.334    -0.000    -0.000    0.000  
 11    9    8    6      3       30.334    0.000    -30.334    -0.000    -0.000    0.000  
 12    9    8    6      3       30.334    0.000    -30.334    -0.000    -0.000    0.000  
 2    4    6    3      3       30.334    0.000    -30.334    -0.000    -0.000    0.000  
 7    4    6    3      3       30.334    0.000    -30.334    -0.000    -0.000    0.000  
 1    3    6    4      3       30.334    0.000    -30.334    -0.000    -0.000    0.000  
 181    184    1    2      3       30.334    0.000    -30.334    -0.000    -0.000    0.000  
 182    184    1    2      3       30.334    0.000    -30.334    -0.000    -0.000    0.000  
 8    6    4    2      3       30.334    0.000    -30.334    -0.000    -0.000    0.000  
 4    2    1    184      3       30.334    0.000    -30.334    -0.000    -0.000    0.000  
 5    2    1    184      3       30.334    0.000    -30.334    -0.000    -0.000    0.000  
 1    184    182    180      3       30.334    0.000    -30.334    -0.000    -0.000    0.000  
 6    4    2    5      3       30.334    0.000    -30.334    -0.000    -0.000    0.000  
 7    4    2    5      3       30.334    0.000    -30.334    -0.000    -0.000    0.000  
 1    2    4    7      3       30.334    0.000    -30.334    -0.000    -0.000    0.000  
 13    11    9    12      3       30.334    0.000    -30.334    -0.000    -0.000    0.000  
 17    20    18    21      3       30.334    0.000    -30.334    -0.000    -0.000    0.000  
 28    25    23    26      3       30.334    0.000    -30.334    -0.000    -0.000    0.000  
 24    27    25    28      3       30.334    0.000    -30.334    -0.000    -0.000    0.000  
 35    32    30    33      3       30.334    0.000    -30.334    -0.000    -0.000    0.000  
 31    34    32    35      3       30.334    0.000    -30.334    -0.000    -0.000    0.000  
 45    48    46    49      3       30.334    0.000    -30.334    -0.000    -0.000    0.000  
 56    53    51    54      3       30.334    0.000    -30.334    -0.000    -0.000    0.000  
 52    55    53    56      3       44.978    0.000    -44.978    -0.000    -0.000    0.000  
 57    55    53    56      3       30.334    0.000    -30.334    -0.000    -0.000    0.000  
 51    53    55    57      3       30.334    0.000    -30.334    -0.000    -0.000    0.000  
 16    18    20    17      3       30.334    0.000    -30.334    -0.000    -0.000    0.000  
 15    17    20    18      3       30.334    0.000    -30.334    -0.000    -0.000    0.000  
 23    25    27    24      3       30.334    0.000    -30.334    -0.000    -0.000    0.000  
 22    24    27    25      3       30.334    0.000    -30.334    -0.000    -0.000    0.000  
 30    32    34    31      3       30.334    0.000    -30.334    -0.000    -0.000    0.000  
 29    31    34    32      3       30.334    0.000    -30.334    -0.000    -0.000    0.000  
 37    39    41    38      3       30.334    0.000    -30.334    -0.000    -0.000    0.000  
 36    38    41    39      3       30.334    0.000    -30.334    -0.000    -0.000    0.000  
 44    46    48    45      3       30.334    0.000    -30.334    -0.000    -0.000    0.000  
 43    45    48    46      3       30.334    0.000    -30.334    -0.000    -0.000    0.000  
 50    52    55    53      3       30.334    0.000    -30.334    -0.000    -0.000    0.000  
 51    53    55    52      3       30.334    0.000    -30.334    -0.000    -0.000    0.000  
 10    8    9    11      3       30.334    0.000    -30.334    -0.000    -0.000    0.000  
 13    11    9    8      3       30.334    0.000    -30.334    -0.000    -0.000    0.000  
 3    1    2    4      3       30.334    0.000    -30.334    -0.000    -0.000    0.000  
 6    4    2    1      3       30.334    0.000    -30.334    -0.000    -0.000    0.000  
 59    58    47    44      3       1.749336    17.711244    -2.824452    -30.455570    10.061197    0.958068  
 73    72    69    66      3       1.749336    17.711244    -2.824452    -30.455570    10.061197    0.958068  
 66    65    62    59      3       1.749336    17.711244    -2.824452    -30.455570    10.061197    0.958068  
 58    47    44    46      3       1.715    2.845    1.046    -5.607    -0.000    0.000  
 58    47    44    43      3       1.715    2.845    1.046    -5.607    -0.000    0.000  
 79    76    73    72      3       1.749336    17.711244    -2.824452    -30.455570    10.061197    0.958068  
 65    62    59    58      3       1.749336    17.711244    -2.824452    -30.455570    10.061197    0.958068  
 72    69    66    65      3       1.749336    17.711244    -2.824452    -30.455570    10.061197    0.958068  
 65    62    59    64      3       0.000000    0.000000    0.000000    0.000000    0.000000    0.000000  
 79    76    73    78      3       0.000000    0.000000    0.000000    0.000000    0.000000    0.000000  
 72    69    66    70      3       0.000000    0.000000    0.000000    0.000000    0.000000    0.000000  
 72    69    66    71      3       0.000000    0.000000    0.000000    0.000000    0.000000    0.000000  
 65    62    59    63      3       0.000000    0.000000    0.000000    0.000000    0.000000    0.000000  
 79    76    73    77      3       0.000000    0.000000    0.000000    0.000000    0.000000    0.000000  
 71    66    65    67      3       0.772830    15.09003    5.377169    -26.373934    4.616032    0.420126  
 64    59    58    60      3       0.772830    15.09003    5.377169    -26.373934    4.616032    0.420126  
 64    59    58    61      3       0.000000    0.000000    0.000000    0.000000    0.000000    0.000000  
 78    73    72    75      3       0.772830    15.09003    5.377169    -26.373934    4.616032    0.420126  
 63    59    58    60      3       0.000000    0.000000    0.000000    0.000000    0.000000    0.000000  
 70    66    65    67      3       0.000000    0.000000    0.000000    0.000000    0.000000    0.000000  
 63    59    58    61      3       0.000000    0.000000    0.000000    0.000000    0.000000    0.000000  
 78    73    72    74      3       0.000000    0.000000    0.000000    0.000000    0.000000    0.000000  
 77    73    72    75      3       0.000000    0.000000    0.000000    0.000000    0.000000    0.000000  
 71    66    65    68      3       0.000000    0.000000    0.000000    0.000000    0.000000    0.000000  
 77    73    72    74      3       0.000000    0.000000    0.000000    0.000000    0.000000    0.000000  
 70    66    65    68      3       0.000000    0.000000    0.000000    0.000000    0.000000    0.000000  
 63    59    58    47      3       0.000000    0.000000    0.000000    0.000000    0.000000    0.000000  
 78    73    72    69      3       0.000000    0.000000    0.000000    0.000000    0.000000    0.000000  
 77    73    72    69      3       0.000000    0.000000    0.000000    0.000000    0.000000    0.000000  
 70    66    65    62      3       0.000000    0.000000    0.000000    0.000000    0.000000    0.000000  
 64    59    58    47      3       0.000000    0.000000    0.000000    0.000000    0.000000    0.000000  
 71    66    65    62      3       0.000000    0.000000    0.000000    0.000000    0.000000    0.000000  
 60    58    47    44      3       0.000000    0.000000    0.000000    0.000000    0.000000    0.000000  
 61    58    47    44      3       0.000000    0.000000    0.000000    0.000000    0.000000    0.000000  
 68    65    62    59      3       0.000000    0.000000    0.000000    0.000000    0.000000    0.000000  
 74    72    69    66      3       0.000000    0.000000    0.000000    0.000000    0.000000    0.000000  
 75    72    69    66      3       0.000000    0.000000    0.000000    0.000000    0.000000    0.000000  
 80    79    76    73      3       1.590    4.770    0.000    -6.360    -0.000    0.000  
 81    79    76    73      3       1.590    4.770    0.000    -6.360    -0.000    0.000  
 82    79    76    73      3       1.590    4.770    0.000    -6.360    -0.000    0.000  
 67    65    62    59      3       0.000000    0.000000    0.000000    0.000000    0.000000    0.000000  
 47    44    46    48      3       9.079    0.000    -9.079    -0.000    -0.000    0.000  
 47    44    43    41      3       9.079    0.000    -9.079    -0.000    -0.000    0.000  
 47    44    46    49      3       9.079    0.000    -9.079    -0.000    -0.000    0.000  
 47    44    43    45      3       9.079    0.000    -9.079    -0.000    -0.000    0.000  
 76    73    72    75      3       0.000000    0.000000    0.000000    0.000000    0.000000    0.000000  
 62    59    58    61      3       0.000000    0.000000    0.000000    0.000000    0.000000    0.000000  
 69    66    65    68      3       0.000000    0.000000    0.000000    0.000000    0.000000    0.000000  
 62    59    58    60      3       0.000000    0.000000    0.000000    0.000000    0.000000    0.000000  
 76    73    72    74      3       0.000000    0.000000    0.000000    0.000000    0.000000    0.000000  
 69    66    65    67      3       0.000000    0.000000    0.000000    0.000000    0.000000    0.000000  
 76    73    72    69      3       0.000000    0.000000    0.000000    0.000000    0.000000    0.000000  
 62    59    58    47      3       0.000000    0.000000    0.000000    0.000000    0.000000    0.000000  
 69    66    65    62      3       0.000000    0.000000    0.000000    0.000000    0.000000    0.000000  
 84    83    19    16      3       1.749336    17.711244    -2.824452    -30.455570    10.061197    0.958068  
 98    97    94    91      3       1.749336    17.711244    -2.824452    -30.455570    10.061197    0.958068  
 91    90    87    84      3       1.749336    17.711244    -2.824452    -30.455570    10.061197    0.958068  
 83    19    16    18      3       1.715    2.845    1.046    -5.607    -0.000    0.000  
 83    19    16    15      3       1.715    2.845    1.046    -5.607    -0.000    0.000  
 104    101    98    97      3       1.749336    17.711244    -2.824452    -30.455570    10.061197    0.958068  
 90    87    84    83      3       1.749336    17.711244    -2.824452    -30.455570    10.061197    0.958068  
 97    94    91    90      3       1.749336    17.711244    -2.824452    -30.455570    10.061197    0.958068  
 90    87    84    89      3       0.000000    0.000000    0.000000    0.000000    0.000000    0.000000  
 104    101    98    103      3       0.000000    0.000000    0.000000    0.000000    0.000000    0.000000  
 97    94    91    95      3       0.000000    0.000000    0.000000    0.000000    0.000000    0.000000  
 97    94    91    96      3       0.000000    0.000000    0.000000    0.000000    0.000000    0.000000  
 90    87    84    88      3       0.000000    0.000000    0.000000    0.000000    0.000000    0.000000  
 104    101    98    102      3       0.000000    0.000000    0.000000    0.000000    0.000000    0.000000  
 96    91    90    92      3       0.772830    15.09003    5.377169    -26.373934    4.616032    0.420126  
 89    84    83    85      3       0.772830    15.09003    5.377169    -26.373934    4.616032    0.420126  
 89    84    83    86      3       0.000000    0.000000    0.000000    0.000000    0.000000    0.000000  
 103    98    97    100      3       0.772830    15.09003    5.377169    -26.373934    4.616032    0.420126  
 88    84    83    85      3       0.000000    0.000000    0.000000    0.000000    0.000000    0.000000  
 95    91    90    92      3       0.000000    0.000000    0.000000    0.000000    0.000000    0.000000  
 88    84    83    86      3       0.000000    0.000000    0.000000    0.000000    0.000000    0.000000  
 103    98    97    99      3       0.000000    0.000000    0.000000    0.000000    0.000000    0.000000  
 102    98    97    100      3       0.000000    0.000000    0.000000    0.000000    0.000000    0.000000  
 96    91    90    93      3       0.000000    0.000000    0.000000    0.000000    0.000000    0.000000  
 102    98    97    99      3       0.000000    0.000000    0.000000    0.000000    0.000000    0.000000  
 95    91    90    93      3       0.000000    0.000000    0.000000    0.000000    0.000000    0.000000  
 88    84    83    19      3       0.000000    0.000000    0.000000    0.000000    0.000000    0.000000  
 103    98    97    94      3       0.000000    0.000000    0.000000    0.000000    0.000000    0.000000  
 102    98    97    94      3       0.000000    0.000000    0.000000    0.000000    0.000000    0.000000  
 95    91    90    87      3       0.000000    0.000000    0.000000    0.000000    0.000000    0.000000  
 89    84    83    19      3       0.000000    0.000000    0.000000    0.000000    0.000000    0.000000  
 96    91    90    87      3       0.000000    0.000000    0.000000    0.000000    0.000000    0.000000  
 85    83    19    16      3       0.000000    0.000000    0.000000    0.000000    0.000000    0.000000  
 86    83    19    16      3       0.000000    0.000000    0.000000    0.000000    0.000000    0.000000  
 93    90    87    84      3       0.000000    0.000000    0.000000    0.000000    0.000000    0.000000  
 99    97    94    91      3       0.000000    0.000000    0.000000    0.000000    0.000000    0.000000  
 100    97    94    91      3       0.000000    0.000000    0.000000    0.000000    0.000000    0.000000  
 105    104    101    98      3       1.590    4.770    0.000    -6.360    -0.000    0.000  
 106    104    101    98      3       1.590    4.770    0.000    -6.360    -0.000    0.000  
 107    104    101    98      3       1.590    4.770    0.000    -6.360    -0.000    0.000  
 92    90    87    84      3       0.000000    0.000000    0.000000    0.000000    0.000000    0.000000  
 19    16    18    20      3       9.079    0.000    -9.079    -0.000    -0.000    0.000  
 19    16    15    13      3       9.079    0.000    -9.079    -0.000    -0.000    0.000  
 19    16    18    21      3       9.079    0.000    -9.079    -0.000    -0.000    0.000  
 19    16    15    17      3       9.079    0.000    -9.079    -0.000    -0.000    0.000  
 101    98    97    100      3       0.000000    0.000000    0.000000    0.000000    0.000000    0.000000  
 87    84    83    86      3       0.000000    0.000000    0.000000    0.000000    0.000000    0.000000  
 94    91    90    93      3       0.000000    0.000000    0.000000    0.000000    0.000000    0.000000  
 87    84    83    85      3       0.000000    0.000000    0.000000    0.000000    0.000000    0.000000  
 101    98    97    99      3       0.000000    0.000000    0.000000    0.000000    0.000000    0.000000  
 94    91    90    92      3       0.000000    0.000000    0.000000    0.000000    0.000000    0.000000  
 101    98    97    94      3       0.000000    0.000000    0.000000    0.000000    0.000000    0.000000  
 87    84    83    19      3       0.000000    0.000000    0.000000    0.000000    0.000000    0.000000  
 94    91    90    87      3       0.000000    0.000000    0.000000    0.000000    0.000000    0.000000  
 109    108    42    39      3       1.749336    17.711244    -2.824452    -30.455570    10.061197    0.958068  
 123    122    119    116      3       1.749336    17.711244    -2.824452    -30.455570    10.061197    0.958068  
 116    115    112    109      3       1.749336    17.711244    -2.824452    -30.455570    10.061197    0.958068  
 108    42    39    37      3       1.715    2.845    1.046    -5.607    -0.000    0.000  
 108    42    39    41      3       1.715    2.845    1.046    -5.607    -0.000    0.000  
 129    126    123    122      3       1.749336    17.711244    -2.824452    -30.455570    10.061197    0.958068  
 115    112    109    108      3       1.749336    17.711244    -2.824452    -30.455570    10.061197    0.958068  
 122    119    116    115      3       1.749336    17.711244    -2.824452    -30.455570    10.061197    0.958068  
 115    112    109    114      3       0.000000    0.000000    0.000000    0.000000    0.000000    0.000000  
 129    126    123    128      3       0.000000    0.000000    0.000000    0.000000    0.000000    0.000000  
 122    119    116    120      3       0.000000    0.000000    0.000000    0.000000    0.000000    0.000000  
 122    119    116    121      3       0.000000    0.000000    0.000000    0.000000    0.000000    0.000000  
 115    112    109    113      3       0.000000    0.000000    0.000000    0.000000    0.000000    0.000000  
 129    126    123    127      3       0.000000    0.000000    0.000000    0.000000    0.000000    0.000000  
 121    116    115    117      3       0.772830    15.09003    5.377169    -26.373934    4.616032    0.420126  
 114    109    108    110      3       0.772830    15.09003    5.377169    -26.373934    4.616032    0.420126  
 114    109    108    111      3       0.000000    0.000000    0.000000    0.000000    0.000000    0.000000  
 128    123    122    125      3       0.772830    15.09003    5.377169    -26.373934    4.616032    0.420126  
 113    109    108    110      3       0.000000    0.000000    0.000000    0.000000    0.000000    0.000000  
 120    116    115    117      3       0.000000    0.000000    0.000000    0.000000    0.000000    0.000000  
 113    109    108    111      3       0.000000    0.000000    0.000000    0.000000    0.000000    0.000000  
 128    123    122    124      3       0.000000    0.000000    0.000000    0.000000    0.000000    0.000000  
 127    123    122    125      3       0.000000    0.000000    0.000000    0.000000    0.000000    0.000000  
 121    116    115    118      3       0.000000    0.000000    0.000000    0.000000    0.000000    0.000000  
 127    123    122    124      3       0.000000    0.000000    0.000000    0.000000    0.000000    0.000000  
 120    116    115    118      3       0.000000    0.000000    0.000000    0.000000    0.000000    0.000000  
 113    109    108    42      3       0.000000    0.000000    0.000000    0.000000    0.000000    0.000000  
 128    123    122    119      3       0.000000    0.000000    0.000000    0.000000    0.000000    0.000000  
 127    123    122    119      3       0.000000    0.000000    0.000000    0.000000    0.000000    0.000000  
 120    116    115    112      3       0.000000    0.000000    0.000000    0.000000    0.000000    0.000000  
 114    109    108    42      3       0.000000    0.000000    0.000000    0.000000    0.000000    0.000000  
 121    116    115    112      3       0.000000    0.000000    0.000000    0.000000    0.000000    0.000000  
 110    108    42    39      3       0.000000    0.000000    0.000000    0.000000    0.000000    0.000000  
 111    108    42    39      3       0.000000    0.000000    0.000000    0.000000    0.000000    0.000000  
 118    115    112    109      3       0.000000    0.000000    0.000000    0.000000    0.000000    0.000000  
 124    122    119    116      3       0.000000    0.000000    0.000000    0.000000    0.000000    0.000000  
 125    122    119    116      3       0.000000    0.000000    0.000000    0.000000    0.000000    0.000000  
 130    129    126    123      3       1.590    4.770    0.000    -6.360    -0.000    0.000  
 131    129    126    123      3       1.590    4.770    0.000    -6.360    -0.000    0.000  
 132    129    126    123      3       1.590    4.770    0.000    -6.360    -0.000    0.000  
 117    115    112    109      3       0.000000    0.000000    0.000000    0.000000    0.000000    0.000000  
 42    39    37    36      3       9.079    0.000    -9.079    -0.000    -0.000    0.000  
 42    39    41    43      3       9.079    0.000    -9.079    -0.000    -0.000    0.000  
 42    39    37    40      3       9.079    0.000    -9.079    -0.000    -0.000    0.000  
 42    39    41    38      3       9.079    0.000    -9.079    -0.000    -0.000    0.000  
 126    123    122    125      3       0.000000    0.000000    0.000000    0.000000    0.000000    0.000000  
 112    109    108    111      3       0.000000    0.000000    0.000000    0.000000    0.000000    0.000000  
 119    116    115    118      3       0.000000    0.000000    0.000000    0.000000    0.000000    0.000000  
 112    109    108    110      3       0.000000    0.000000    0.000000    0.000000    0.000000    0.000000  
 126    123    122    124      3       0.000000    0.000000    0.000000    0.000000    0.000000    0.000000  
 119    116    115    117      3       0.000000    0.000000    0.000000    0.000000    0.000000    0.000000  
 126    123    122    119      3       0.000000    0.000000    0.000000    0.000000    0.000000    0.000000  
 112    109    108    42      3       0.000000    0.000000    0.000000    0.000000    0.000000    0.000000  
 119    116    115    112      3       0.000000    0.000000    0.000000    0.000000    0.000000    0.000000  
 134    133    14    11      3       1.749336    17.711244    -2.824452    -30.455570    10.061197    0.958068  
 148    147    144    141      3       1.749336    17.711244    -2.824452    -30.455570    10.061197    0.958068  
 141    140    137    134      3       1.749336    17.711244    -2.824452    -30.455570    10.061197    0.958068  
 133    14    11    9      3       1.715    2.845    1.046    -5.607    -0.000    0.000  
 133    14    11    13      3       1.715    2.845    1.046    -5.607    -0.000    0.000  
 154    151    148    147      3       1.749336    17.711244    -2.824452    -30.455570    10.061197    0.958068  
 140    137    134    133      3       1.749336    17.711244    -2.824452    -30.455570    10.061197    0.958068  
 147    144    141    140      3       1.749336    17.711244    -2.824452    -30.455570    10.061197    0.958068  
 140    137    134    139      3       0.000000    0.000000    0.000000    0.000000    0.000000    0.000000  
 154    151    148    153      3       0.000000    0.000000    0.000000    0.000000    0.000000    0.000000  
 147    144    141    145      3       0.000000    0.000000    0.000000    0.000000    0.000000    0.000000  
 147    144    141    146      3       0.000000    0.000000    0.000000    0.000000    0.000000    0.000000  
 140    137    134    138      3       0.000000    0.000000    0.000000    0.000000    0.000000    0.000000  
 154    151    148    152      3       0.000000    0.000000    0.000000    0.000000    0.000000    0.000000  
 146    141    140    142      3       0.772830    15.09003    5.377169    -26.373934    4.616032    0.420126  
 139    134    133    135      3       0.772830    15.09003    5.377169    -26.373934    4.616032    0.420126  
 139    134    133    136      3       0.000000    0.000000    0.000000    0.000000    0.000000    0.000000  
 153    148    147    150      3       0.772830    15.09003    5.377169    -26.373934    4.616032    0.420126  
 138    134    133    135      3       0.000000    0.000000    0.000000    0.000000    0.000000    0.000000  
 145    141    140    142      3       0.000000    0.000000    0.000000    0.000000    0.000000    0.000000  
 138    134    133    136      3       0.000000    0.000000    0.000000    0.000000    0.000000    0.000000  
 153    148    147    149      3       0.000000    0.000000    0.000000    0.000000    0.000000    0.000000  
 152    148    147    150      3       0.000000    0.000000    0.000000    0.000000    0.000000    0.000000  
 146    141    140    143      3       0.000000    0.000000    0.000000    0.000000    0.000000    0.000000  
 152    148    147    149      3       0.000000    0.000000    0.000000    0.000000    0.000000    0.000000  
 145    141    140    143      3       0.000000    0.000000    0.000000    0.000000    0.000000    0.000000  
 138    134    133    14      3       0.000000    0.000000    0.000000    0.000000    0.000000    0.000000  
 153    148    147    144      3       0.000000    0.000000    0.000000    0.000000    0.000000    0.000000  
 152    148    147    144      3       0.000000    0.000000    0.000000    0.000000    0.000000    0.000000  
 145    141    140    137      3       0.000000    0.000000    0.000000    0.000000    0.000000    0.000000  
 139    134    133    14      3       0.000000    0.000000    0.000000    0.000000    0.000000    0.000000  
 146    141    140    137      3       0.000000    0.000000    0.000000    0.000000    0.000000    0.000000  
 135    133    14    11      3       0.000000    0.000000    0.000000    0.000000    0.000000    0.000000  
 136    133    14    11      3       0.000000    0.000000    0.000000    0.000000    0.000000    0.000000  
 143    140    137    134      3       0.000000    0.000000    0.000000    0.000000    0.000000    0.000000  
 149    147    144    141      3       0.000000    0.000000    0.000000    0.000000    0.000000    0.000000  
 150    147    144    141      3       0.000000    0.000000    0.000000    0.000000    0.000000    0.000000  
 155    154    151    148      3       1.590    4.770    0.000    -6.360    -0.000    0.000  
 156    154    151    148      3       1.590    4.770    0.000    -6.360    -0.000    0.000  
 157    154    151    148      3       1.590    4.770    0.000    -6.360    -0.000    0.000  
 142    140    137    134      3       0.000000    0.000000    0.000000    0.000000    0.000000    0.000000  
 14    11    9    8      3       9.079    0.000    -9.079    -0.000    -0.000    0.000  
 14    11    13    15      3       9.079    0.000    -9.079    -0.000    -0.000    0.000  
 14    11    9    12      3       9.079    0.000    -9.079    -0.000    -0.000    0.000  
 14    11    13    10      3       9.079    0.000    -9.079    -0.000    -0.000    0.000  
 151    148    147    150      3       0.000000    0.000000    0.000000    0.000000    0.000000    0.000000  
 137    134    133    136      3       0.000000    0.000000    0.000000    0.000000    0.000000    0.000000  
 144    141    140    143      3       0.000000    0.000000    0.000000    0.000000    0.000000    0.000000  
 137    134    133    135      3       0.000000    0.000000    0.000000    0.000000    0.000000    0.000000  
 151    148    147    149      3       0.000000    0.000000    0.000000    0.000000    0.000000    0.000000  
 144    141    140    142      3       0.000000    0.000000    0.000000    0.000000    0.000000    0.000000  
 151    148    147    144      3       0.000000    0.000000    0.000000    0.000000    0.000000    0.000000  
 137    134    133    14      3       0.000000    0.000000    0.000000    0.000000    0.000000    0.000000  
 144    141    140    137      3       0.000000    0.000000    0.000000    0.000000    0.000000    0.000000  
 175    173    172    170      3       30.334    0.000    -30.334    -0.000    -0.000    0.000  
 176    173    172    170      3       9.079    0.000    -9.079    -0.000    -0.000    0.000  
 177    175    173    172      3       30.334    0.000    -30.334    -0.000    -0.000    0.000  
 179    177    175    173      3       30.334    0.000    -30.334    -0.000    -0.000    0.000  
 180    179    177    175      3       11.476    -6.8000    -29.672    2.7457    11.317    -2.3483    ;    T-G    (C-C)  
 181    179    177    175      3       30.334    0.000    -30.334    -0.000    -0.000    0.000  
 182    180    179    177      3       30.334    0.000    -30.334    -0.000    -0.000    0.000  
 184    182    180    179      3       30.334    0.000    -30.334    -0.000    -0.000    0.000  
 167    170    172    173      3       0.000    0.000    0.000    0.000    0.000    0.000  
 168    170    172    173      3       8.2521    14.350    -8.5922    -1.9756    -10.209    -3.1398    ;    G-G    (C-C)  
 171    168    170    172      3       9.079    0.000    -9.079    -0.000    -0.000    0.000  
 165    167    170    172      3       30.334    0.000    -30.334    -0.000    -0.000    0.000  
 166    165    167    170      3       30.334    0.000    -30.334    -0.000    -0.000    0.000  
 163    165    167    170      3       30.334    0.000    -30.334    -0.000    -0.000    0.000  
 160    163    165    167      3       30.334    0.000    -30.334    -0.000    -0.000    0.000  
 161    163    165    167      3       30.334    0.000    -30.334    -0.000    -0.000    0.000  
 158    160    163    165      3       30.334    0.000    -30.334    -0.000    -0.000    0.000  
 159    158    160    163      3       30.334    0.000    -30.334    -0.000    -0.000    0.000  
 262    158    160    163      3       30.334    0.000    -30.334    -0.000    -0.000    0.000  
 259    262    158    160      3       10.941    -3.8128    -29.156    -0.1003    11.570    -0.9840    ;    T-T    (S-S)  
 260    262    158    160      3       30.334    0.000    -30.334    -0.000    -0.000    0.000  
 257    259    262    158      3       30.334    0.000    -30.334    -0.000    -0.000    0.000  
 263    260    262    158      3       30.334    0.000    -30.334    -0.000    -0.000    0.000  
 162    159    158    160      3       30.334    0.000    -30.334    -0.000    -0.000    0.000  
 164    161    163    165      3       30.334    0.000    -30.334    -0.000    -0.000    0.000  
 169    166    165    167      3       30.334    0.000    -30.334    -0.000    -0.000    0.000  
 178    175    173    172      3       30.334    0.000    -30.334    -0.000    -0.000    0.000  
 183    180    179    177      3       30.334    0.000    -30.334    -0.000    -0.000    0.000  
 185    182    180    179      3       30.334    0.000    -30.334    -0.000    -0.000    0.000  
 177    174    172    170      3       30.334    0.000    -30.334    -0.000    -0.000    0.000  
 177    174    172    173      3       30.334    0.000    -30.334    -0.000    -0.000    0.000  
 167    170    172    174      3       0.000    0.000    0.000    0.000    0.000    0.000  
 168    170    172    174      3       0.000    0.000    0.000    0.000    0.000    0.000  
 175    173    172    174      3       30.334    0.000    -30.334    -0.000    -0.000    0.000  
 176    173    172    174      3       9.079    0.000    -9.079    -0.000    -0.000    0.000  
 177    175    173    176      3       9.079    0.000    -9.079    -0.000    -0.000    0.000  
 178    175    173    176      3       9.079    0.000    -9.079    -0.000    -0.000    0.000  
 178    175    177    179      3       30.334    0.000    -30.334    -0.000    -0.000    0.000  
 172    174    177    179      3       30.334    0.000    -30.334    -0.000    -0.000    0.000  
 174    177    179    180      3       30.334    0.000    -30.334    -0.000    -0.000    0.000  
 184    181    179    180      3       30.334    0.000    -30.334    -0.000    -0.000    0.000  
 174    177    179    181      3       30.334    0.000    -30.334    -0.000    -0.000    0.000  
 182    180    179    181      3       30.334    0.000    -30.334    -0.000    -0.000    0.000  
 183    180    179    181      3       30.334    0.000    -30.334    -0.000    -0.000    0.000  
 183    180    182    184      3       30.334    0.000    -30.334    -0.000    -0.000    0.000  
 177    179    181    184      3       30.334    0.000    -30.334    -0.000    -0.000    0.000  
 171    168    170    167      3       9.079    0.000    -9.079    -0.000    -0.000    0.000  
 166    168    170    167      3       30.334    0.000    -30.334    -0.000    -0.000    0.000  
 165    167    170    168      3       30.334    0.000    -30.334    -0.000    -0.000    0.000  
 165    166    168    171      3       9.079    0.000    -9.079    -0.000    -0.000    0.000  
 169    166    168    171      3       9.079    0.000    -9.079    -0.000    -0.000    0.000  
 160    163    165    166      3       30.334    0.000    -30.334    -0.000    -0.000    0.000  
 161    163    165    166      3       11.476    -6.8000    -29.672    2.7457    11.317    -2.3483    ;    T-G    (C-C)  
 172    170    168    166      3       30.334    0.000    -30.334    -0.000    -0.000    0.000  
 168    166    165    163      3       30.334    0.000    -30.334    -0.000    -0.000    0.000  
 169    166    165    163      3       30.334    0.000    -30.334    -0.000    -0.000    0.000  
 159    161    163    160      3       30.334    0.000    -30.334    -0.000    -0.000    0.000  
 164    161    163    160      3       30.334    0.000    -30.334    -0.000    -0.000    0.000  
 158    160    163    161      3       30.334    0.000    -30.334    -0.000    -0.000    0.000  
 259    262    158    159      3       30.334    0.000    -30.334    -0.000    -0.000    0.000  
 260    262    158    159      3       30.334    0.000    -30.334    -0.000    -0.000    0.000  
 165    163    161    159      3       30.334    0.000    -30.334    -0.000    -0.000    0.000  
 161    159    158    262      3       30.334    0.000    -30.334    -0.000    -0.000    0.000  
 162    159    158    262      3       30.334    0.000    -30.334    -0.000    -0.000    0.000  
 158    262    260    258      3       30.334    0.000    -30.334    -0.000    -0.000    0.000  
 163    161    159    162      3       30.334    0.000    -30.334    -0.000    -0.000    0.000  
 164    161    159    162      3       30.334    0.000    -30.334    -0.000    -0.000    0.000  
 158    159    161    164      3       30.334    0.000    -30.334    -0.000    -0.000    0.000  
 170    168    166    169      3       30.334    0.000    -30.334    -0.000    -0.000    0.000  
 174    177    175    178      3       30.334    0.000    -30.334    -0.000    -0.000    0.000  
 185    182    180    183      3       30.334    0.000    -30.334    -0.000    -0.000    0.000  
 181    184    182    185      3       30.334    0.000    -30.334    -0.000    -0.000    0.000  
 173    175    177    174      3       30.334    0.000    -30.334    -0.000    -0.000    0.000  
 172    174    177    175      3       30.334    0.000    -30.334    -0.000    -0.000    0.000  
 180    182    184    181      3       30.334    0.000    -30.334    -0.000    -0.000    0.000  
 179    181    184    182      3       30.334    0.000    -30.334    -0.000    -0.000    0.000  
 167    165    166    168      3       30.334    0.000    -30.334    -0.000    -0.000    0.000  
 170    168    166    165      3       30.334    0.000    -30.334    -0.000    -0.000    0.000  
 160    158    159    161      3       30.334    0.000    -30.334    -0.000    -0.000    0.000  
 163    161    159    158      3       30.334    0.000    -30.334    -0.000    -0.000    0.000  
 187    186    176    173      3       1.749336    17.711244    -2.824452    -30.455570    10.061197    0.958068  
 201    200    197    194      3       1.749336    17.711244    -2.824452    -30.455570    10.061197    0.958068  
 194    193    190    187      3       1.749336    17.711244    -2.824452    -30.455570    10.061197    0.958068  
 186    176    173    175      3       1.715    2.845    1.046    -5.607    -0.000    0.000  
 186    176    173    172      3       1.715    2.845    1.046    -5.607    -0.000    0.000  
 207    204    201    200      3       1.749336    17.711244    -2.824452    -30.455570    10.061197    0.958068  
 193    190    187    186      3       1.749336    17.711244    -2.824452    -30.455570    10.061197    0.958068  
 200    197    194    193      3       1.749336    17.711244    -2.824452    -30.455570    10.061197    0.958068  
 193    190    187    192      3       0.000000    0.000000    0.000000    0.000000    0.000000    0.000000  
 207    204    201    206      3       0.000000    0.000000    0.000000    0.000000    0.000000    0.000000  
 200    197    194    198      3       0.000000    0.000000    0.000000    0.000000    0.000000    0.000000  
 200    197    194    199      3       0.000000    0.000000    0.000000    0.000000    0.000000    0.000000  
 193    190    187    191      3       0.000000    0.000000    0.000000    0.000000    0.000000    0.000000  
 207    204    201    205      3       0.000000    0.000000    0.000000    0.000000    0.000000    0.000000  
 199    194    193    195      3       0.772830    15.09003    5.377169    -26.373934    4.616032    0.420126  
 192    187    186    188      3       0.772830    15.09003    5.377169    -26.373934    4.616032    0.420126  
 192    187    186    189      3       0.000000    0.000000    0.000000    0.000000    0.000000    0.000000  
 206    201    200    203      3       0.772830    15.09003    5.377169    -26.373934    4.616032    0.420126  
 191    187    186    188      3       0.000000    0.000000    0.000000    0.000000    0.000000    0.000000  
 198    194    193    195      3       0.000000    0.000000    0.000000    0.000000    0.000000    0.000000  
 191    187    186    189      3       0.000000    0.000000    0.000000    0.000000    0.000000    0.000000  
 206    201    200    202      3       0.000000    0.000000    0.000000    0.000000    0.000000    0.000000  
 205    201    200    203      3       0.000000    0.000000    0.000000    0.000000    0.000000    0.000000  
 199    194    193    196      3       0.000000    0.000000    0.000000    0.000000    0.000000    0.000000  
 205    201    200    202      3       0.000000    0.000000    0.000000    0.000000    0.000000    0.000000  
 198    194    193    196      3       0.000000    0.000000    0.000000    0.000000    0.000000    0.000000  
 191    187    186    176      3       0.000000    0.000000    0.000000    0.000000    0.000000    0.000000  
 206    201    200    197      3       0.000000    0.000000    0.000000    0.000000    0.000000    0.000000  
 205    201    200    197      3       0.000000    0.000000    0.000000    0.000000    0.000000    0.000000  
 198    194    193    190      3       0.000000    0.000000    0.000000    0.000000    0.000000    0.000000  
 192    187    186    176      3       0.000000    0.000000    0.000000    0.000000    0.000000    0.000000  
 199    194    193    190      3       0.000000    0.000000    0.000000    0.000000    0.000000    0.000000  
 188    186    176    173      3       0.000000    0.000000    0.000000    0.000000    0.000000    0.000000  
 189    186    176    173      3       0.000000    0.000000    0.000000    0.000000    0.000000    0.000000  
 196    193    190    187      3       0.000000    0.000000    0.000000    0.000000    0.000000    0.000000  
 202    200    197    194      3       0.000000    0.000000    0.000000    0.000000    0.000000    0.000000  
 203    200    197    194      3       0.000000    0.000000    0.000000    0.000000    0.000000    0.000000  
 208    207    204    201      3       1.590    4.770    0.000    -6.360    -0.000    0.000  
 209    207    204    201      3       1.590    4.770    0.000    -6.360    -0.000    0.000  
 210    207    204    201      3       1.590    4.770    0.000    -6.360    -0.000    0.000  
 195    193    190    187      3       0.000000    0.000000    0.000000    0.000000    0.000000    0.000000  
 176    173    175    177      3       9.079    0.000    -9.079    -0.000    -0.000    0.000  
 176    173    172    170      3       9.079    0.000    -9.079    -0.000    -0.000    0.000  
 176    173    175    178      3       9.079    0.000    -9.079    -0.000    -0.000    0.000  
 176    173    172    174      3       9.079    0.000    -9.079    -0.000    -0.000    0.000  
 204    201    200    203      3       0.000000    0.000000    0.000000    0.000000    0.000000    0.000000  
 190    187    186    189      3       0.000000    0.000000    0.000000    0.000000    0.000000    0.000000  
 197    194    193    196      3       0.000000    0.000000    0.000000    0.000000    0.000000    0.000000  
 190    187    186    188      3       0.000000    0.000000    0.000000    0.000000    0.000000    0.000000  
 204    201    200    202      3       0.000000    0.000000    0.000000    0.000000    0.000000    0.000000  
 197    194    193    195      3       0.000000    0.000000    0.000000    0.000000    0.000000    0.000000  
 204    201    200    197      3       0.000000    0.000000    0.000000    0.000000    0.000000    0.000000  
 190    187    186    176      3       0.000000    0.000000    0.000000    0.000000    0.000000    0.000000  
 197    194    193    190      3       0.000000    0.000000    0.000000    0.000000    0.000000    0.000000  
 212    211    171    168      3       1.749336    17.711244    -2.824452    -30.455570    10.061197    0.958068  
 226    225    222    219      3       1.749336    17.711244    -2.824452    -30.455570    10.061197    0.958068  
 219    218    215    212      3       1.749336    17.711244    -2.824452    -30.455570    10.061197    0.958068  
 211    171    168    166      3       1.715    2.845    1.046    -5.607    -0.000    0.000  
 211    171    168    170      3       1.715    2.845    1.046    -5.607    -0.000    0.000  
 232    229    226    225      3       1.749336    17.711244    -2.824452    -30.455570    10.061197    0.958068  
 218    215    212    211      3       1.749336    17.711244    -2.824452    -30.455570    10.061197    0.958068  
 225    222    219    218      3       1.749336    17.711244    -2.824452    -30.455570    10.061197    0.958068  
 218    215    212    217      3       0.000000    0.000000    0.000000    0.000000    0.000000    0.000000  
 232    229    226    231      3       0.000000    0.000000    0.000000    0.000000    0.000000    0.000000  
 225    222    219    223      3       0.000000    0.000000    0.000000    0.000000    0.000000    0.000000  
 225    222    219    224      3       0.000000    0.000000    0.000000    0.000000    0.000000    0.000000  
 218    215    212    216      3       0.000000    0.000000    0.000000    0.000000    0.000000    0.000000  
 232    229    226    230      3       0.000000    0.000000    0.000000    0.000000    0.000000    0.000000  
 224    219    218    220      3       0.772830    15.09003    5.377169    -26.373934    4.616032    0.420126  
 217    212    211    213      3       0.772830    15.09003    5.377169    -26.373934    4.616032    0.420126  
 217    212    211    214      3       0.000000    0.000000    0.000000    0.000000    0.000000    0.000000  
 231    226    225    228      3       0.772830    15.09003    5.377169    -26.373934    4.616032    0.420126  
 216    212    211    213      3       0.000000    0.000000    0.000000    0.000000    0.000000    0.000000  
 223    219    218    220      3       0.000000    0.000000    0.000000    0.000000    0.000000    0.000000  
 216    212    211    214      3       0.000000    0.000000    0.000000    0.000000    0.000000    0.000000  
 231    226    225    227      3       0.000000    0.000000    0.000000    0.000000    0.000000    0.000000  
 230    226    225    228      3       0.000000    0.000000    0.000000    0.000000    0.000000    0.000000  
 224    219    218    221      3       0.000000    0.000000    0.000000    0.000000    0.000000    0.000000  
 230    226    225    227      3       0.000000    0.000000    0.000000    0.000000    0.000000    0.000000  
 223    219    218    221      3       0.000000    0.000000    0.000000    0.000000    0.000000    0.000000  
 216    212    211    171      3       0.000000    0.000000    0.000000    0.000000    0.000000    0.000000  
 231    226    225    222      3       0.000000    0.000000    0.000000    0.000000    0.000000    0.000000  
 230    226    225    222      3       0.000000    0.000000    0.000000    0.000000    0.000000    0.000000  
 223    219    218    215      3       0.000000    0.000000    0.000000    0.000000    0.000000    0.000000  
 217    212    211    171      3       0.000000    0.000000    0.000000    0.000000    0.000000    0.000000  
 224    219    218    215      3       0.000000    0.000000    0.000000    0.000000    0.000000    0.000000  
 213    211    171    168      3       0.000000    0.000000    0.000000    0.000000    0.000000    0.000000  
 214    211    171    168      3       0.000000    0.000000    0.000000    0.000000    0.000000    0.000000  
 221    218    215    212      3       0.000000    0.000000    0.000000    0.000000    0.000000    0.000000  
 227    225    222    219      3       0.000000    0.000000    0.000000    0.000000    0.000000    0.000000  
 228    225    222    219      3       0.000000    0.000000    0.000000    0.000000    0.000000    0.000000  
 233    232    229    226      3       1.590    4.770    0.000    -6.360    -0.000    0.000  
 234    232    229    226      3       1.590    4.770    0.000    -6.360    -0.000    0.000  
 235    232    229    226      3       1.590    4.770    0.000    -6.360    -0.000    0.000  
 220    218    215    212      3       0.000000    0.000000    0.000000    0.000000    0.000000    0.000000  
 171    168    166    165      3       9.079    0.000    -9.079    -0.000    -0.000    0.000  
 171    168    170    172      3       9.079    0.000    -9.079    -0.000    -0.000    0.000  
 171    168    166    169      3       9.079    0.000    -9.079    -0.000    -0.000    0.000  
 171    168    170    167      3       9.079    0.000    -9.079    -0.000    -0.000    0.000  
 229    226    225    228      3       0.000000    0.000000    0.000000    0.000000    0.000000    0.000000  
 215    212    211    214      3       0.000000    0.000000    0.000000    0.000000    0.000000    0.000000  
 222    219    218    221      3       0.000000    0.000000    0.000000    0.000000    0.000000    0.000000  
 215    212    211    213      3       0.000000    0.000000    0.000000    0.000000    0.000000    0.000000  
 229    226    225    227      3       0.000000    0.000000    0.000000    0.000000    0.000000    0.000000  
 222    219    218    220      3       0.000000    0.000000    0.000000    0.000000    0.000000    0.000000  
 229    226    225    222      3       0.000000    0.000000    0.000000    0.000000    0.000000    0.000000  
 215    212    211    171      3       0.000000    0.000000    0.000000    0.000000    0.000000    0.000000  
 222    219    218    215      3       0.000000    0.000000    0.000000    0.000000    0.000000    0.000000  
 253    251    250    248      3       30.334    0.000    -30.334    -0.000    -0.000    0.000  
 254    251    250    248      3       9.079    0.000    -9.079    -0.000    -0.000    0.000  
 255    253    251    250      3       30.334    0.000    -30.334    -0.000    -0.000    0.000  
 257    255    253    251      3       30.334    0.000    -30.334    -0.000    -0.000    0.000  
 258    257    255    253      3       11.476    -6.8000    -29.672    2.7457    11.317    -2.3483    ;    T-G    (C-C)  
 259    257    255    253      3       30.334    0.000    -30.334    -0.000    -0.000    0.000  
 260    258    257    255      3       30.334    0.000    -30.334    -0.000    -0.000    0.000  
 262    260    258    257      3       30.334    0.000    -30.334    -0.000    -0.000    0.000  
 245    248    250    251      3       0.000    0.000    0.000    0.000    0.000    0.000  
 246    248    250    251      3       8.2521    14.350    -8.5922    -1.9756    -10.209    -3.1398    ;    G-G    (C-C)  
 249    246    248    250      3       9.079    0.000    -9.079    -0.000    -0.000    0.000  
 243    245    248    250      3       30.334    0.000    -30.334    -0.000    -0.000    0.000  
 244    243    245    248      3       30.334    0.000    -30.334    -0.000    -0.000    0.000  
 241    243    245    248      3       30.334    0.000    -30.334    -0.000    -0.000    0.000  
 238    241    243    245      3       30.334    0.000    -30.334    -0.000    -0.000    0.000  
 239    241    243    245      3       30.334    0.000    -30.334    -0.000    -0.000    0.000  
 236    238    241    243      3       30.334    0.000    -30.334    -0.000    -0.000    0.000  
 237    236    238    241      3       30.334    0.000    -30.334    -0.000    -0.000    0.000  
 368    236    238    241      3       30.334    0.000    -30.334    -0.000    -0.000    0.000  
 365    368    236    238      3       10.941    -3.8128    -29.156    -0.1003    11.570    -0.9840    ;    T-T    (S-S)  
 366    368    236    238      3       30.334    0.000    -30.334    -0.000    -0.000    0.000  
 363    365    368    236      3       30.334    0.000    -30.334    -0.000    -0.000    0.000  
 369    366    368    236      3       30.334    0.000    -30.334    -0.000    -0.000    0.000  
 240    237    236    238      3       30.334    0.000    -30.334    -0.000    -0.000    0.000  
 242    239    241    243      3       30.334    0.000    -30.334    -0.000    -0.000    0.000  
 247    244    243    245      3       30.334    0.000    -30.334    -0.000    -0.000    0.000  
 256    253    251    250      3       30.334    0.000    -30.334    -0.000    -0.000    0.000  
 261    258    257    255      3       30.334    0.000    -30.334    -0.000    -0.000    0.000  
 263    260    258    257      3       30.334    0.000    -30.334    -0.000    -0.000    0.000  
 255    252    250    248      3       30.334    0.000    -30.334    -0.000    -0.000    0.000  
 255    252    250    251      3       30.334    0.000    -30.334    -0.000    -0.000    0.000  
 245    248    250    252      3       0.000    0.000    0.000    0.000    0.000    0.000  
 246    248    250    252      3       0.000    0.000    0.000    0.000    0.000    0.000  
 253    251    250    252      3       30.334    0.000    -30.334    -0.000    -0.000    0.000  
 254    251    250    252      3       9.079    0.000    -9.079    -0.000    -0.000    0.000  
 255    253    251    254      3       9.079    0.000    -9.079    -0.000    -0.000    0.000  
 256    253    251    254      3       9.079    0.000    -9.079    -0.000    -0.000    0.000  
 256    253    255    257      3       30.334    0.000    -30.334    -0.000    -0.000    0.000  
 250    252    255    257      3       30.334    0.000    -30.334    -0.000    -0.000    0.000  
 252    255    257    258      3       30.334    0.000    -30.334    -0.000    -0.000    0.000  
 262    259    257    258      3       30.334    0.000    -30.334    -0.000    -0.000    0.000  
 252    255    257    259      3       30.334    0.000    -30.334    -0.000    -0.000    0.000  
 260    258    257    259      3       30.334    0.000    -30.334    -0.000    -0.000    0.000  
 261    258    257    259      3       30.334    0.000    -30.334    -0.000    -0.000    0.000  
 261    258    260    262      3       30.334    0.000    -30.334    -0.000    -0.000    0.000  
 255    257    259    262      3       30.334    0.000    -30.334    -0.000    -0.000    0.000  
 249    246    248    245      3       9.079    0.000    -9.079    -0.000    -0.000    0.000  
 244    246    248    245      3       30.334    0.000    -30.334    -0.000    -0.000    0.000  
 243    245    248    246      3       30.334    0.000    -30.334    -0.000    -0.000    0.000  
 243    244    246    249      3       9.079    0.000    -9.079    -0.000    -0.000    0.000  
 247    244    246    249      3       9.079    0.000    -9.079    -0.000    -0.000    0.000  
 238    241    243    244      3       30.334    0.000    -30.334    -0.000    -0.000    0.000  
 239    241    243    244      3       11.476    -6.8000    -29.672    2.7457    11.317    -2.3483    ;    T-G    (C-C)  
 250    248    246    244      3       30.334    0.000    -30.334    -0.000    -0.000    0.000  
 246    244    243    241      3       30.334    0.000    -30.334    -0.000    -0.000    0.000  
 247    244    243    241      3       30.334    0.000    -30.334    -0.000    -0.000    0.000  
 237    239    241    238      3       30.334    0.000    -30.334    -0.000    -0.000    0.000  
 242    239    241    238      3       30.334    0.000    -30.334    -0.000    -0.000    0.000  
 236    238    241    239      3       30.334    0.000    -30.334    -0.000    -0.000    0.000  
 365    368    236    237      3       30.334    0.000    -30.334    -0.000    -0.000    0.000  
 366    368    236    237      3       30.334    0.000    -30.334    -0.000    -0.000    0.000  
 243    241    239    237      3       30.334    0.000    -30.334    -0.000    -0.000    0.000  
 239    237    236    368      3       30.334    0.000    -30.334    -0.000    -0.000    0.000  
 240    237    236    368      3       30.334    0.000    -30.334    -0.000    -0.000    0.000  
 236    368    366    364      3       30.334    0.000    -30.334    -0.000    -0.000    0.000  
 241    239    237    240      3       30.334    0.000    -30.334    -0.000    -0.000    0.000  
 242    239    237    240      3       30.334    0.000    -30.334    -0.000    -0.000    0.000  
 236    237    239    242      3       30.334    0.000    -30.334    -0.000    -0.000    0.000  
 248    246    244    247      3       30.334    0.000    -30.334    -0.000    -0.000    0.000  
 252    255    253    256      3       30.334    0.000    -30.334    -0.000    -0.000    0.000  
 263    260    258    261      3       30.334    0.000    -30.334    -0.000    -0.000    0.000  
 259    262    260    263      3       30.334    0.000    -30.334    -0.000    -0.000    0.000  
 251    253    255    252      3       30.334    0.000    -30.334    -0.000    -0.000    0.000  
 250    252    255    253      3       30.334    0.000    -30.334    -0.000    -0.000    0.000  
 258    260    262    259      3       30.334    0.000    -30.334    -0.000    -0.000    0.000  
 257    259    262    260      3       30.334    0.000    -30.334    -0.000    -0.000    0.000  
 245    243    244    246      3       30.334    0.000    -30.334    -0.000    -0.000    0.000  
 248    246    244    243      3       30.334    0.000    -30.334    -0.000    -0.000    0.000  
 238    236    237    239      3       30.334    0.000    -30.334    -0.000    -0.000    0.000  
 241    239    237    236      3       30.334    0.000    -30.334    -0.000    -0.000    0.000  
 265    264    254    251      3       1.749336    17.711244    -2.824452    -30.455570    10.061197    0.958068  
 279    278    275    272      3       1.749336    17.711244    -2.824452    -30.455570    10.061197    0.958068  
 272    271    268    265      3       1.749336    17.711244    -2.824452    -30.455570    10.061197    0.958068  
 264    254    251    253      3       1.715    2.845    1.046    -5.607    -0.000    0.000  
 264    254    251    250      3       1.715    2.845    1.046    -5.607    -0.000    0.000  
 285    282    279    278      3       1.749336    17.711244    -2.824452    -30.455570    10.061197    0.958068  
 271    268    265    264      3       1.749336    17.711244    -2.824452    -30.455570    10.061197    0.958068  
 278    275    272    271      3       1.749336    17.711244    -2.824452    -30.455570    10.061197    0.958068  
 271    268    265    270      3       0.000000    0.000000    0.000000    0.000000    0.000000    0.000000  
 285    282    279    284      3       0.000000    0.000000    0.000000    0.000000    0.000000    0.000000  
 278    275    272    276      3       0.000000    0.000000    0.000000    0.000000    0.000000    0.000000  
 278    275    272    277      3       0.000000    0.000000    0.000000    0.000000    0.000000    0.000000  
 271    268    265    269      3       0.000000    0.000000    0.000000    0.000000    0.000000    0.000000  
 285    282    279    283      3       0.000000    0.000000    0.000000    0.000000    0.000000    0.000000  
 277    272    271    273      3       0.772830    15.09003    5.377169    -26.373934    4.616032    0.420126  
 270    265    264    266      3       0.772830    15.09003    5.377169    -26.373934    4.616032    0.420126  
 270    265    264    267      3       0.000000    0.000000    0.000000    0.000000    0.000000    0.000000  
 284    279    278    281      3       0.772830    15.09003    5.377169    -26.373934    4.616032    0.420126  
 269    265    264    266      3       0.000000    0.000000    0.000000    0.000000    0.000000    0.000000  
 276    272    271    273      3       0.000000    0.000000    0.000000    0.000000    0.000000    0.000000  
 269    265    264    267      3       0.000000    0.000000    0.000000    0.000000    0.000000    0.000000  
 284    279    278    280      3       0.000000    0.000000    0.000000    0.000000    0.000000    0.000000  
 283    279    278    281      3       0.000000    0.000000    0.000000    0.000000    0.000000    0.000000  
 277    272    271    274      3       0.000000    0.000000    0.000000    0.000000    0.000000    0.000000  
 283    279    278    280      3       0.000000    0.000000    0.000000    0.000000    0.000000    0.000000  
 276    272    271    274      3       0.000000    0.000000    0.000000    0.000000    0.000000    0.000000  
 269    265    264    254      3       0.000000    0.000000    0.000000    0.000000    0.000000    0.000000  
 284    279    278    275      3       0.000000    0.000000    0.000000    0.000000    0.000000    0.000000  
 283    279    278    275      3       0.000000    0.000000    0.000000    0.000000    0.000000    0.000000  
 276    272    271    268      3       0.000000    0.000000    0.000000    0.000000    0.000000    0.000000  
 270    265    264    254      3       0.000000    0.000000    0.000000    0.000000    0.000000    0.000000  
 277    272    271    268      3       0.000000    0.000000    0.000000    0.000000    0.000000    0.000000  
 266    264    254    251      3       0.000000    0.000000    0.000000    0.000000    0.000000    0.000000  
 267    264    254    251      3       0.000000    0.000000    0.000000    0.000000    0.000000    0.000000  
 274    271    268    265      3       0.000000    0.000000    0.000000    0.000000    0.000000    0.000000  
 280    278    275    272      3       0.000000    0.000000    0.000000    0.000000    0.000000    0.000000  
 281    278    275    272      3       0.000000    0.000000    0.000000    0.000000    0.000000    0.000000  
 286    285    282    279      3       1.590    4.770    0.000    -6.360    -0.000    0.000  
 287    285    282    279      3       1.590    4.770    0.000    -6.360    -0.000    0.000  
 288    285    282    279      3       1.590    4.770    0.000    -6.360    -0.000    0.000  
 273    271    268    265      3       0.000000    0.000000    0.000000    0.000000    0.000000    0.000000  
 254    251    253    255      3       9.079    0.000    -9.079    -0.000    -0.000    0.000  
 254    251    250    248      3       9.079    0.000    -9.079    -0.000    -0.000    0.000  
 254    251    253    256      3       9.079    0.000    -9.079    -0.000    -0.000    0.000  
 254    251    250    252      3       9.079    0.000    -9.079    -0.000    -0.000    0.000  
 282    279    278    281      3       0.000000    0.000000    0.000000    0.000000    0.000000    0.000000  
 268    265    264    267      3       0.000000    0.000000    0.000000    0.000000    0.000000    0.000000  
 275    272    271    274      3       0.000000    0.000000    0.000000    0.000000    0.000000    0.000000  
 268    265    264    266      3       0.000000    0.000000    0.000000    0.000000    0.000000    0.000000  
 282    279    278    280      3       0.000000    0.000000    0.000000    0.000000    0.000000    0.000000  
 275    272    271    273      3       0.000000    0.000000    0.000000    0.000000    0.000000    0.000000  
 282    279    278    275      3       0.000000    0.000000    0.000000    0.000000    0.000000    0.000000  
 268    265    264    254      3       0.000000    0.000000    0.000000    0.000000    0.000000    0.000000  
 275    272    271    268      3       0.000000    0.000000    0.000000    0.000000    0.000000    0.000000  
 290    289    249    246      3       1.749336    17.711244    -2.824452    -30.455570    10.061197    0.958068  
 304    303    300    297      3       1.749336    17.711244    -2.824452    -30.455570    10.061197    0.958068  
 297    296    293    290      3       1.749336    17.711244    -2.824452    -30.455570    10.061197    0.958068  
 289    249    246    244      3       1.715    2.845    1.046    -5.607    -0.000    0.000  
 289    249    246    248      3       1.715    2.845    1.046    -5.607    -0.000    0.000  
 310    307    304    303      3       1.749336    17.711244    -2.824452    -30.455570    10.061197    0.958068  
 296    293    290    289      3       1.749336    17.711244    -2.824452    -30.455570    10.061197    0.958068  
 303    300    297    296      3       1.749336    17.711244    -2.824452    -30.455570    10.061197    0.958068  
 296    293    290    295      3       0.000000    0.000000    0.000000    0.000000    0.000000    0.000000  
 310    307    304    309      3       0.000000    0.000000    0.000000    0.000000    0.000000    0.000000  
 303    300    297    301      3       0.000000    0.000000    0.000000    0.000000    0.000000    0.000000  
 303    300    297    302      3       0.000000    0.000000    0.000000    0.000000    0.000000    0.000000  
 296    293    290    294      3       0.000000    0.000000    0.000000    0.000000    0.000000    0.000000  
 310    307    304    308      3       0.000000    0.000000    0.000000    0.000000    0.000000    0.000000  
 302    297    296    298      3       0.772830    15.09003    5.377169    -26.373934    4.616032    0.420126  
 295    290    289    291      3       0.772830    15.09003    5.377169    -26.373934    4.616032    0.420126  
 295    290    289    292      3       0.000000    0.000000    0.000000    0.000000    0.000000    0.000000  
 309    304    303    306      3       0.772830    15.09003    5.377169    -26.373934    4.616032    0.420126  
 294    290    289    291      3       0.000000    0.000000    0.000000    0.000000    0.000000    0.000000  
 301    297    296    298      3       0.000000    0.000000    0.000000    0.000000    0.000000    0.000000  
 294    290    289    292      3       0.000000    0.000000    0.000000    0.000000    0.000000    0.000000  
 309    304    303    305      3       0.000000    0.000000    0.000000    0.000000    0.000000    0.000000  
 308    304    303    306      3       0.000000    0.000000    0.000000    0.000000    0.000000    0.000000  
 302    297    296    299      3       0.000000    0.000000    0.000000    0.000000    0.000000    0.000000  
 308    304    303    305      3       0.000000    0.000000    0.000000    0.000000    0.000000    0.000000  
 301    297    296    299      3       0.000000    0.000000    0.000000    0.000000    0.000000    0.000000  
 294    290    289    249      3       0.000000    0.000000    0.000000    0.000000    0.000000    0.000000  
 309    304    303    300      3       0.000000    0.000000    0.000000    0.000000    0.000000    0.000000  
 308    304    303    300      3       0.000000    0.000000    0.000000    0.000000    0.000000    0.000000  
 301    297    296    293      3       0.000000    0.000000    0.000000    0.000000    0.000000    0.000000  
 295    290    289    249      3       0.000000    0.000000    0.000000    0.000000    0.000000    0.000000  
 302    297    296    293      3       0.000000    0.000000    0.000000    0.000000    0.000000    0.000000  
 291    289    249    246      3       0.000000    0.000000    0.000000    0.000000    0.000000    0.000000  
 292    289    249    246      3       0.000000    0.000000    0.000000    0.000000    0.000000    0.000000  
 299    296    293    290      3       0.000000    0.000000    0.000000    0.000000    0.000000    0.000000  
 305    303    300    297      3       0.000000    0.000000    0.000000    0.000000    0.000000    0.000000  
 306    303    300    297      3       0.000000    0.000000    0.000000    0.000000    0.000000    0.000000  
 311    310    307    304      3       1.590    4.770    0.000    -6.360    -0.000    0.000  
 312    310    307    304      3       1.590    4.770    0.000    -6.360    -0.000    0.000  
 313    310    307    304      3       1.590    4.770    0.000    -6.360    -0.000    0.000  
 298    296    293    290      3       0.000000    0.000000    0.000000    0.000000    0.000000    0.000000  
 249    246    244    243      3       9.079    0.000    -9.079    -0.000    -0.000    0.000  
 249    246    248    250      3       9.079    0.000    -9.079    -0.000    -0.000    0.000  
 249    246    244    247      3       9.079    0.000    -9.079    -0.000    -0.000    0.000  
 249    246    248    245      3       9.079    0.000    -9.079    -0.000    -0.000    0.000  
 307    304    303    306      3       0.000000    0.000000    0.000000    0.000000    0.000000    0.000000  
 293    290    289    292      3       0.000000    0.000000    0.000000    0.000000    0.000000    0.000000  
 300    297    296    299      3       0.000000    0.000000    0.000000    0.000000    0.000000    0.000000  
 293    290    289    291      3       0.000000    0.000000    0.000000    0.000000    0.000000    0.000000  
 307    304    303    305      3       0.000000    0.000000    0.000000    0.000000    0.000000    0.000000  
 300    297    296    298      3       0.000000    0.000000    0.000000    0.000000    0.000000    0.000000  
 307    304    303    300      3       0.000000    0.000000    0.000000    0.000000    0.000000    0.000000  
 293    290    289    249      3       0.000000    0.000000    0.000000    0.000000    0.000000    0.000000  
 300    297    296    293      3       0.000000    0.000000    0.000000    0.000000    0.000000    0.000000  
 359    357    356    354      3       30.334    0.000    -30.334    -0.000    -0.000    0.000  
 360    357    356    354      3       9.079    0.000    -9.079    -0.000    -0.000    0.000  
 361    359    357    356      3       30.334    0.000    -30.334    -0.000    -0.000    0.000  
 363    361    359    357      3       30.334    0.000    -30.334    -0.000    -0.000    0.000  
 364    363    361    359      3       11.476    -6.8000    -29.672    2.7457    11.317    -2.3483    ;    T-G    (C-C)  
 365    363    361    359      3       30.334    0.000    -30.334    -0.000    -0.000    0.000  
 366    364    363    361      3       30.334    0.000    -30.334    -0.000    -0.000    0.000  
 368    366    364    363      3       30.334    0.000    -30.334    -0.000    -0.000    0.000  
 351    354    356    357      3       0.000    0.000    0.000    0.000    0.000    0.000  
 352    354    356    357      3       8.2521    14.350    -8.5922    -1.9756    -10.209    -3.1398    ;    G-G    (C-C)  
 355    352    354    356      3       9.079    0.000    -9.079    -0.000    -0.000    0.000  
 349    351    354    356      3       30.334    0.000    -30.334    -0.000    -0.000    0.000  
 350    349    351    354      3       30.334    0.000    -30.334    -0.000    -0.000    0.000  
 347    349    351    354      3       30.334    0.000    -30.334    -0.000    -0.000    0.000  
 344    347    349    351      3       30.334    0.000    -30.334    -0.000    -0.000    0.000  
 345    347    349    351      3       30.334    0.000    -30.334    -0.000    -0.000    0.000  
 342    344    347    349      3       30.334    0.000    -30.334    -0.000    -0.000    0.000  
 343    342    344    347      3       30.334    0.000    -30.334    -0.000    -0.000    0.000  
 340    342    344    347      3       30.334    0.000    -30.334    -0.000    -0.000    0.000  
 337    340    342    344      3       10.941    -3.8128    -29.156    -0.1003    11.570    -0.9840    ;    T-T    (S-S)  
 338    340    342    344      3       30.334    0.000    -30.334    -0.000    -0.000    0.000  
 335    337    340    342      3       30.334    0.000    -30.334    -0.000    -0.000    0.000  
 336    335    337    340      3       30.334    0.000    -30.334    -0.000    -0.000    0.000  
 333    335    337    340      3       30.334    0.000    -30.334    -0.000    -0.000    0.000  
 330    333    335    337      3       30.334    0.000    -30.334    -0.000    -0.000    0.000  
 331    333    335    337      3       30.334    0.000    -30.334    -0.000    -0.000    0.000  
 328    330    333    335      3       30.334    0.000    -30.334    -0.000    -0.000    0.000  
 329    328    330    333      3       30.334    0.000    -30.334    -0.000    -0.000    0.000  
 332    329    328    330      3       9.079    0.000    -9.079    -0.000    -0.000    0.000  
 326    328    330    333      3       30.334    0.000    -30.334    -0.000    -0.000    0.000  
 323    326    328    330      3       30.334    0.000    -30.334    -0.000    -0.000    0.000  
 324    326    328    330      3       30.334    0.000    -30.334    -0.000    -0.000    0.000  
 327    324    326    328      3       9.079    0.000    -9.079    -0.000    -0.000    0.000  
 321    323    326    328      3       30.334    0.000    -30.334    -0.000    -0.000    0.000  
 322    321    323    326      3       30.334    0.000    -30.334    -0.000    -0.000    0.000  
 319    321    323    326      3       30.334    0.000    -30.334    -0.000    -0.000    0.000  
 316    319    321    323      3       30.334    0.000    -30.334    -0.000    -0.000    0.000  
 317    319    321    323      3       30.334    0.000    -30.334    -0.000    -0.000    0.000  
 314    316    319    321      3       30.334    0.000    -30.334    -0.000    -0.000    0.000  
 315    314    316    319      3       30.334    0.000    -30.334    -0.000    -0.000    0.000  
 318    315    314    316      3       44.978    0.000    -44.978    -0.000    -0.000    0.000  
 320    317    319    321      3       30.334    0.000    -30.334    -0.000    -0.000    0.000  
 325    322    321    323      3       30.334    0.000    -30.334    -0.000    -0.000    0.000  
 334    331    333    335      3       30.334    0.000    -30.334    -0.000    -0.000    0.000  
 339    336    335    337      3       30.334    0.000    -30.334    -0.000    -0.000    0.000  
 341    338    340    342      3       30.334    0.000    -30.334    -0.000    -0.000    0.000  
 346    343    342    344      3       30.334    0.000    -30.334    -0.000    -0.000    0.000  
 348    345    347    349      3       30.334    0.000    -30.334    -0.000    -0.000    0.000  
 353    350    349    351      3       30.334    0.000    -30.334    -0.000    -0.000    0.000  
 362    359    357    356      3       30.334    0.000    -30.334    -0.000    -0.000    0.000  
 367    364    363    361      3       30.334    0.000    -30.334    -0.000    -0.000    0.000  
 369    366    364    363      3       30.334    0.000    -30.334    -0.000    -0.000    0.000  
 370    314    316    319      3       30.334    0.000    -30.334    -0.000    -0.000    0.000  
 361    358    356    354      3       30.334    0.000    -30.334    -0.000    -0.000    0.000  
 361    358    356    357      3       30.334    0.000    -30.334    -0.000    -0.000    0.000  
 351    354    356    358      3       0.000    0.000    0.000    0.000    0.000    0.000  
 352    354    356    358      3       0.000    0.000    0.000    0.000    0.000    0.000  
 359    357    356    358      3       30.334    0.000    -30.334    -0.000    -0.000    0.000  
 360    357    356    358      3       9.079    0.000    -9.079    -0.000    -0.000    0.000  
 361    359    357    360      3       9.079    0.000    -9.079    -0.000    -0.000    0.000  
 362    359    357    360      3       9.079    0.000    -9.079    -0.000    -0.000    0.000  
 362    359    361    363      3       30.334    0.000    -30.334    -0.000    -0.000    0.000  
 356    358    361    363      3       30.334    0.000    -30.334    -0.000    -0.000    0.000  
 358    361    363    364      3       30.334    0.000    -30.334    -0.000    -0.000    0.000  
 368    365    363    364      3       30.334    0.000    -30.334    -0.000    -0.000    0.000  
 358    361    363    365      3       30.334    0.000    -30.334    -0.000    -0.000    0.000  
 366    364    363    365      3       30.334    0.000    -30.334    -0.000    -0.000    0.000  
 367    364    363    365      3       30.334    0.000    -30.334    -0.000    -0.000    0.000  
 367    364    366    368      3       30.334    0.000    -30.334    -0.000    -0.000    0.000  
 361    363    365    368      3       30.334    0.000    -30.334    -0.000    -0.000    0.000  
 355    352    354    351      3       9.079    0.000    -9.079    -0.000    -0.000    0.000  
 350    352    354    351      3       30.334    0.000    -30.334    -0.000    -0.000    0.000  
 349    351    354    352      3       30.334    0.000    -30.334    -0.000    -0.000    0.000  
 349    350    352    355      3       9.079    0.000    -9.079    -0.000    -0.000    0.000  
 353    350    352    355      3       9.079    0.000    -9.079    -0.000    -0.000    0.000  
 344    347    349    350      3       30.334    0.000    -30.334    -0.000    -0.000    0.000  
 345    347    349    350      3       11.476    -6.8000    -29.672    2.7457    11.317    -2.3483    ;    T-G    (C-C)  
 356    354    352    350      3       30.334    0.000    -30.334    -0.000    -0.000    0.000  
 352    350    349    347      3       30.334    0.000    -30.334    -0.000    -0.000    0.000  
 353    350    349    347      3       30.334    0.000    -30.334    -0.000    -0.000    0.000  
 343    345    347    344      3       30.334    0.000    -30.334    -0.000    -0.000    0.000  
 348    345    347    344      3       30.334    0.000    -30.334    -0.000    -0.000    0.000  
 342    344    347    345      3       30.334    0.000    -30.334    -0.000    -0.000    0.000  
 337    340    342    343      3       30.334    0.000    -30.334    -0.000    -0.000    0.000  
 338    340    342    343      3       30.334    0.000    -30.334    -0.000    -0.000    0.000  
 349    347    345    343      3       30.334    0.000    -30.334    -0.000    -0.000    0.000  
 345    343    342    340      3       30.334    0.000    -30.334    -0.000    -0.000    0.000  
 346    343    342    340      3       30.334    0.000    -30.334    -0.000    -0.000    0.000  
 336    338    340    337      3       30.334    0.000    -30.334    -0.000    -0.000    0.000  
 341    338    340    337      3       30.334    0.000    -30.334    -0.000    -0.000    0.000  
 335    337    340    338      3       30.334    0.000    -30.334    -0.000    -0.000    0.000  
 330    333    335    336      3       30.334    0.000    -30.334    -0.000    -0.000    0.000  
 331    333    335    336      3       11.476    -6.8000    -29.672    2.7457    11.317    -2.3483    ;    T-G    (C-C)  
 342    340    338    336      3       30.334    0.000    -30.334    -0.000    -0.000    0.000  
 338    336    335    333      3       30.334    0.000    -30.334    -0.000    -0.000    0.000  
 339    336    335    333      3       30.334    0.000    -30.334    -0.000    -0.000    0.000  
 329    331    333    330      3       30.334    0.000    -30.334    -0.000    -0.000    0.000  
 334    331    333    330      3       30.334    0.000    -30.334    -0.000    -0.000    0.000  
 328    330    333    331      3       30.334    0.000    -30.334    -0.000    -0.000    0.000  
 323    326    328    329      3       30.334    0.000    -30.334    -0.000    -0.000    0.000  
 324    326    328    329      3       8.2521    14.350    -8.5922    -1.9756    -10.209    -3.1398    ;    G-G    (C-C)  
 335    333    331    329      3       30.334    0.000    -30.334    -0.000    -0.000    0.000  
 326    328    329    332      3       9.079    0.000    -9.079    -0.000    -0.000    0.000  
 333    331    329    332      3       9.079    0.000    -9.079    -0.000    -0.000    0.000  
 334    331    329    332      3       9.079    0.000    -9.079    -0.000    -0.000    0.000  
 331    329    328    326      3       30.334    0.000    -30.334    -0.000    -0.000    0.000  
 327    324    326    323      3       9.079    0.000    -9.079    -0.000    -0.000    0.000  
 322    324    326    323      3       30.334    0.000    -30.334    -0.000    -0.000    0.000  
 321    323    326    324      3       30.334    0.000    -30.334    -0.000    -0.000    0.000  
 321    322    324    327      3       9.079    0.000    -9.079    -0.000    -0.000    0.000  
 325    322    324    327      3       9.079    0.000    -9.079    -0.000    -0.000    0.000  
 316    319    321    322      3       30.334    0.000    -30.334    -0.000    -0.000    0.000  
 317    319    321    322      3       11.476    -6.8000    -29.672    2.7457    11.317    -2.3483    ;    T-G    (C-C)  
 328    326    324    322      3       30.334    0.000    -30.334    -0.000    -0.000    0.000  
 324    322    321    319      3       30.334    0.000    -30.334    -0.000    -0.000    0.000  
 325    322    321    319      3       30.334    0.000    -30.334    -0.000    -0.000    0.000  
 315    317    319    316      3       30.334    0.000    -30.334    -0.000    -0.000    0.000  
 320    317    319    316      3       30.334    0.000    -30.334    -0.000    -0.000    0.000  
 314    316    319    317      3       30.334    0.000    -30.334    -0.000    -0.000    0.000  
 321    319    317    315      3       30.334    0.000    -30.334    -0.000    -0.000    0.000  
 370    314    315    318      3       30.334    0.000    -30.334    -0.000    -0.000    0.000  
 319    317    315    318      3       30.334    0.000    -30.334    -0.000    -0.000    0.000  
 320    317    315    318      3       30.334    0.000    -30.334    -0.000    -0.000    0.000  
 314    315    317    320      3       30.334    0.000    -30.334    -0.000    -0.000    0.000  
 326    324    322    325      3       30.334    0.000    -30.334    -0.000    -0.000    0.000  
 328    329    331    334      3       30.334    0.000    -30.334    -0.000    -0.000    0.000  
 340    338    336    339      3       30.334    0.000    -30.334    -0.000    -0.000    0.000  
 341    338    336    339      3       30.334    0.000    -30.334    -0.000    -0.000    0.000  
 335    336    338    341      3       30.334    0.000    -30.334    -0.000    -0.000    0.000  
 347    345    343    346      3       30.334    0.000    -30.334    -0.000    -0.000    0.000  
 348    345    343    346      3       30.334    0.000    -30.334    -0.000    -0.000    0.000  
 342    343    345    348      3       30.334    0.000    -30.334    -0.000    -0.000    0.000  
 354    352    350    353      3       30.334    0.000    -30.334    -0.000    -0.000    0.000  
 358    361    359    362      3       30.334    0.000    -30.334    -0.000    -0.000    0.000  
 369    366    364    367      3       30.334    0.000    -30.334    -0.000    -0.000    0.000  
 365    368    366    369      3       30.334    0.000    -30.334    -0.000    -0.000    0.000  
 317    315    314    370      3       30.334    0.000    -30.334    -0.000    -0.000    0.000  
 357    359    361    358      3       30.334    0.000    -30.334    -0.000    -0.000    0.000  
 356    358    361    359      3       30.334    0.000    -30.334    -0.000    -0.000    0.000  
 364    366    368    365      3       30.334    0.000    -30.334    -0.000    -0.000    0.000  
 363    365    368    366      3       30.334    0.000    -30.334    -0.000    -0.000    0.000  
 351    349    350    352      3       30.334    0.000    -30.334    -0.000    -0.000    0.000  
 354    352    350    349      3       30.334    0.000    -30.334    -0.000    -0.000    0.000  
 344    342    343    345      3       30.334    0.000    -30.334    -0.000    -0.000    0.000  
 347    345    343    342      3       30.334    0.000    -30.334    -0.000    -0.000    0.000  
 337    335    336    338      3       30.334    0.000    -30.334    -0.000    -0.000    0.000  
 340    338    336    335      3       30.334    0.000    -30.334    -0.000    -0.000    0.000  
 330    328    329    331      3       30.334    0.000    -30.334    -0.000    -0.000    0.000  
 333    331    329    328      3       30.334    0.000    -30.334    -0.000    -0.000    0.000  
 323    321    322    324      3       30.334    0.000    -30.334    -0.000    -0.000    0.000  
 326    324    322    321      3       30.334    0.000    -30.334    -0.000    -0.000    0.000  
 316    314    315    317      3       30.334    0.000    -30.334    -0.000    -0.000    0.000  
 319    317    315    314      3       30.334    0.000    -30.334    -0.000    -0.000    0.000  
 372    371    360    357      3       1.749336    17.711244    -2.824452    -30.455570    10.061197    0.958068  
 386    385    382    379      3       1.749336    17.711244    -2.824452    -30.455570    10.061197    0.958068  
 379    378    375    372      3       1.749336    17.711244    -2.824452    -30.455570    10.061197    0.958068  
 371    360    357    359      3       1.715    2.845    1.046    -5.607    -0.000    0.000  
 371    360    357    356      3       1.715    2.845    1.046    -5.607    -0.000    0.000  
 392    389    386    385      3       1.749336    17.711244    -2.824452    -30.455570    10.061197    0.958068  
 378    375    372    371      3       1.749336    17.711244    -2.824452    -30.455570    10.061197    0.958068  
 385    382    379    378      3       1.749336    17.711244    -2.824452    -30.455570    10.061197    0.958068  
 378    375    372    377      3       0.000000    0.000000    0.000000    0.000000    0.000000    0.000000  
 392    389    386    391      3       0.000000    0.000000    0.000000    0.000000    0.000000    0.000000  
 385    382    379    383      3       0.000000    0.000000    0.000000    0.000000    0.000000    0.000000  
 385    382    379    384      3       0.000000    0.000000    0.000000    0.000000    0.000000    0.000000  
 378    375    372    376      3       0.000000    0.000000    0.000000    0.000000    0.000000    0.000000  
 392    389    386    390      3       0.000000    0.000000    0.000000    0.000000    0.000000    0.000000  
 384    379    378    380      3       0.772830    15.09003    5.377169    -26.373934    4.616032    0.420126  
 377    372    371    373      3       0.772830    15.09003    5.377169    -26.373934    4.616032    0.420126  
 377    372    371    374      3       0.000000    0.000000    0.000000    0.000000    0.000000    0.000000  
 391    386    385    388      3       0.772830    15.09003    5.377169    -26.373934    4.616032    0.420126  
 376    372    371    373      3       0.000000    0.000000    0.000000    0.000000    0.000000    0.000000  
 383    379    378    380      3       0.000000    0.000000    0.000000    0.000000    0.000000    0.000000  
 376    372    371    374      3       0.000000    0.000000    0.000000    0.000000    0.000000    0.000000  
 391    386    385    387      3       0.000000    0.000000    0.000000    0.000000    0.000000    0.000000  
 390    386    385    388      3       0.000000    0.000000    0.000000    0.000000    0.000000    0.000000  
 384    379    378    381      3       0.000000    0.000000    0.000000    0.000000    0.000000    0.000000  
 390    386    385    387      3       0.000000    0.000000    0.000000    0.000000    0.000000    0.000000  
 383    379    378    381      3       0.000000    0.000000    0.000000    0.000000    0.000000    0.000000  
 376    372    371    360      3       0.000000    0.000000    0.000000    0.000000    0.000000    0.000000  
 391    386    385    382      3       0.000000    0.000000    0.000000    0.000000    0.000000    0.000000  
 390    386    385    382      3       0.000000    0.000000    0.000000    0.000000    0.000000    0.000000  
 383    379    378    375      3       0.000000    0.000000    0.000000    0.000000    0.000000    0.000000  
 377    372    371    360      3       0.000000    0.000000    0.000000    0.000000    0.000000    0.000000  
 384    379    378    375      3       0.000000    0.000000    0.000000    0.000000    0.000000    0.000000  
 373    371    360    357      3       0.000000    0.000000    0.000000    0.000000    0.000000    0.000000  
 374    371    360    357      3       0.000000    0.000000    0.000000    0.000000    0.000000    0.000000  
 381    378    375    372      3       0.000000    0.000000    0.000000    0.000000    0.000000    0.000000  
 387    385    382    379      3       0.000000    0.000000    0.000000    0.000000    0.000000    0.000000  
 388    385    382    379      3       0.000000    0.000000    0.000000    0.000000    0.000000    0.000000  
 393    392    389    386      3       1.590    4.770    0.000    -6.360    -0.000    0.000  
 394    392    389    386      3       1.590    4.770    0.000    -6.360    -0.000    0.000  
 395    392    389    386      3       1.590    4.770    0.000    -6.360    -0.000    0.000  
 380    378    375    372      3       0.000000    0.000000    0.000000    0.000000    0.000000    0.000000  
 360    357    359    361      3       9.079    0.000    -9.079    -0.000    -0.000    0.000  
 360    357    356    354      3       9.079    0.000    -9.079    -0.000    -0.000    0.000  
 360    357    359    362      3       9.079    0.000    -9.079    -0.000    -0.000    0.000  
 360    357    356    358      3       9.079    0.000    -9.079    -0.000    -0.000    0.000  
 389    386    385    388      3       0.000000    0.000000    0.000000    0.000000    0.000000    0.000000  
 375    372    371    374      3       0.000000    0.000000    0.000000    0.000000    0.000000    0.000000  
 382    379    378    381      3       0.000000    0.000000    0.000000    0.000000    0.000000    0.000000  
 375    372    371    373      3       0.000000    0.000000    0.000000    0.000000    0.000000    0.000000  
 389    386    385    387      3       0.000000    0.000000    0.000000    0.000000    0.000000    0.000000  
 382    379    378    380      3       0.000000    0.000000    0.000000    0.000000    0.000000    0.000000  
 389    386    385    382      3       0.000000    0.000000    0.000000    0.000000    0.000000    0.000000  
 375    372    371    360      3       0.000000    0.000000    0.000000    0.000000    0.000000    0.000000  
 382    379    378    375      3       0.000000    0.000000    0.000000    0.000000    0.000000    0.000000  
 397    396    355    352      3       1.749336    17.711244    -2.824452    -30.455570    10.061197    0.958068  
 411    410    407    404      3       1.749336    17.711244    -2.824452    -30.455570    10.061197    0.958068  
 404    403    400    397      3       1.749336    17.711244    -2.824452    -30.455570    10.061197    0.958068  
 396    355    352    350      3       1.715    2.845    1.046    -5.607    -0.000    0.000  
 396    355    352    354      3       1.715    2.845    1.046    -5.607    -0.000    0.000  
 417    414    411    410      3       1.749336    17.711244    -2.824452    -30.455570    10.061197    0.958068  
 403    400    397    396      3       1.749336    17.711244    -2.824452    -30.455570    10.061197    0.958068  
 410    407    404    403      3       1.749336    17.711244    -2.824452    -30.455570    10.061197    0.958068  
 403    400    397    402      3       0.000000    0.000000    0.000000    0.000000    0.000000    0.000000  
 417    414    411    416      3       0.000000    0.000000    0.000000    0.000000    0.000000    0.000000  
 410    407    404    408      3       0.000000    0.000000    0.000000    0.000000    0.000000    0.000000  
 410    407    404    409      3       0.000000    0.000000    0.000000    0.000000    0.000000    0.000000  
 403    400    397    401      3       0.000000    0.000000    0.000000    0.000000    0.000000    0.000000  
 417    414    411    415      3       0.000000    0.000000    0.000000    0.000000    0.000000    0.000000  
 409    404    403    405      3       0.772830    15.09003    5.377169    -26.373934    4.616032    0.420126  
 402    397    396    398      3       0.772830    15.09003    5.377169    -26.373934    4.616032    0.420126  
 402    397    396    399      3       0.000000    0.000000    0.000000    0.000000    0.000000    0.000000  
 416    411    410    413      3       0.772830    15.09003    5.377169    -26.373934    4.616032    0.420126  
 401    397    396    398      3       0.000000    0.000000    0.000000    0.000000    0.000000    0.000000  
 408    404    403    405      3       0.000000    0.000000    0.000000    0.000000    0.000000    0.000000  
 401    397    396    399      3       0.000000    0.000000    0.000000    0.000000    0.000000    0.000000  
 416    411    410    412      3       0.000000    0.000000    0.000000    0.000000    0.000000    0.000000  
 415    411    410    413      3       0.000000    0.000000    0.000000    0.000000    0.000000    0.000000  
 409    404    403    406      3       0.000000    0.000000    0.000000    0.000000    0.000000    0.000000  
 415    411    410    412      3       0.000000    0.000000    0.000000    0.000000    0.000000    0.000000  
 408    404    403    406      3       0.000000    0.000000    0.000000    0.000000    0.000000    0.000000  
 401    397    396    355      3       0.000000    0.000000    0.000000    0.000000    0.000000    0.000000  
 416    411    410    407      3       0.000000    0.000000    0.000000    0.000000    0.000000    0.000000  
 415    411    410    407      3       0.000000    0.000000    0.000000    0.000000    0.000000    0.000000  
 408    404    403    400      3       0.000000    0.000000    0.000000    0.000000    0.000000    0.000000  
 402    397    396    355      3       0.000000    0.000000    0.000000    0.000000    0.000000    0.000000  
 409    404    403    400      3       0.000000    0.000000    0.000000    0.000000    0.000000    0.000000  
 398    396    355    352      3       0.000000    0.000000    0.000000    0.000000    0.000000    0.000000  
 399    396    355    352      3       0.000000    0.000000    0.000000    0.000000    0.000000    0.000000  
 406    403    400    397      3       0.000000    0.000000    0.000000    0.000000    0.000000    0.000000  
 412    410    407    404      3       0.000000    0.000000    0.000000    0.000000    0.000000    0.000000  
 413    410    407    404      3       0.000000    0.000000    0.000000    0.000000    0.000000    0.000000  
 418    417    414    411      3       1.590    4.770    0.000    -6.360    -0.000    0.000  
 419    417    414    411      3       1.590    4.770    0.000    -6.360    -0.000    0.000  
 420    417    414    411      3       1.590    4.770    0.000    -6.360    -0.000    0.000  
 405    403    400    397      3       0.000000    0.000000    0.000000    0.000000    0.000000    0.000000  
 355    352    350    349      3       9.079    0.000    -9.079    -0.000    -0.000    0.000  
 355    352    354    356      3       9.079    0.000    -9.079    -0.000    -0.000    0.000  
 355    352    350    353      3       9.079    0.000    -9.079    -0.000    -0.000    0.000  
 355    352    354    351      3       9.079    0.000    -9.079    -0.000    -0.000    0.000  
 414    411    410    413      3       0.000000    0.000000    0.000000    0.000000    0.000000    0.000000  
 400    397    396    399      3       0.000000    0.000000    0.000000    0.000000    0.000000    0.000000  
 407    404    403    406      3       0.000000    0.000000    0.000000    0.000000    0.000000    0.000000  
 400    397    396    398      3       0.000000    0.000000    0.000000    0.000000    0.000000    0.000000  
 414    411    410    412      3       0.000000    0.000000    0.000000    0.000000    0.000000    0.000000  
 407    404    403    405      3       0.000000    0.000000    0.000000    0.000000    0.000000    0.000000  
 414    411    410    407      3       0.000000    0.000000    0.000000    0.000000    0.000000    0.000000  
 400    397    396    355      3       0.000000    0.000000    0.000000    0.000000    0.000000    0.000000  
 407    404    403    400      3       0.000000    0.000000    0.000000    0.000000    0.000000    0.000000  
 422    421    332    329      3       1.749336    17.711244    -2.824452    -30.455570    10.061197    0.958068  
 436    435    432    429      3       1.749336    17.711244    -2.824452    -30.455570    10.061197    0.958068  
 429    428    425    422      3       1.749336    17.711244    -2.824452    -30.455570    10.061197    0.958068  
 421    332    329    331      3       1.715    2.845    1.046    -5.607    -0.000    0.000  
 421    332    329    328      3       1.715    2.845    1.046    -5.607    -0.000    0.000  
 442    439    436    435      3       1.749336    17.711244    -2.824452    -30.455570    10.061197    0.958068  
 428    425    422    421      3       1.749336    17.711244    -2.824452    -30.455570    10.061197    0.958068  
 435    432    429    428      3       1.749336    17.711244    -2.824452    -30.455570    10.061197    0.958068  
 428    425    422    427      3       0.000000    0.000000    0.000000    0.000000    0.000000    0.000000  
 442    439    436    441      3       0.000000    0.000000    0.000000    0.000000    0.000000    0.000000  
 435    432    429    433      3       0.000000    0.000000    0.000000    0.000000    0.000000    0.000000  
 435    432    429    434      3       0.000000    0.000000    0.000000    0.000000    0.000000    0.000000  
 428    425    422    426      3       0.000000    0.000000    0.000000    0.000000    0.000000    0.000000  
 442    439    436    440      3       0.000000    0.000000    0.000000    0.000000    0.000000    0.000000  
 434    429    428    430      3       0.772830    15.09003    5.377169    -26.373934    4.616032    0.420126  
 427    422    421    423      3       0.772830    15.09003    5.377169    -26.373934    4.616032    0.420126  
 427    422    421    424      3       0.000000    0.000000    0.000000    0.000000    0.000000    0.000000  
 441    436    435    438      3       0.772830    15.09003    5.377169    -26.373934    4.616032    0.420126  
 426    422    421    423      3       0.000000    0.000000    0.000000    0.000000    0.000000    0.000000  
 433    429    428    430      3       0.000000    0.000000    0.000000    0.000000    0.000000    0.000000  
 426    422    421    424      3       0.000000    0.000000    0.000000    0.000000    0.000000    0.000000  
 441    436    435    437      3       0.000000    0.000000    0.000000    0.000000    0.000000    0.000000  
 440    436    435    438      3       0.000000    0.000000    0.000000    0.000000    0.000000    0.000000  
 434    429    428    431      3       0.000000    0.000000    0.000000    0.000000    0.000000    0.000000  
 440    436    435    437      3       0.000000    0.000000    0.000000    0.000000    0.000000    0.000000  
 433    429    428    431      3       0.000000    0.000000    0.000000    0.000000    0.000000    0.000000  
 426    422    421    332      3       0.000000    0.000000    0.000000    0.000000    0.000000    0.000000  
 441    436    435    432      3       0.000000    0.000000    0.000000    0.000000    0.000000    0.000000  
 440    436    435    432      3       0.000000    0.000000    0.000000    0.000000    0.000000    0.000000  
 433    429    428    425      3       0.000000    0.000000    0.000000    0.000000    0.000000    0.000000  
 427    422    421    332      3       0.000000    0.000000    0.000000    0.000000    0.000000    0.000000  
 434    429    428    425      3       0.000000    0.000000    0.000000    0.000000    0.000000    0.000000  
 423    421    332    329      3       0.000000    0.000000    0.000000    0.000000    0.000000    0.000000  
 424    421    332    329      3       0.000000    0.000000    0.000000    0.000000    0.000000    0.000000  
 431    428    425    422      3       0.000000    0.000000    0.000000    0.000000    0.000000    0.000000  
 437    435    432    429      3       0.000000    0.000000    0.000000    0.000000    0.000000    0.000000  
 438    435    432    429      3       0.000000    0.000000    0.000000    0.000000    0.000000    0.000000  
 443    442    439    436      3       1.590    4.770    0.000    -6.360    -0.000    0.000  
 444    442    439    436      3       1.590    4.770    0.000    -6.360    -0.000    0.000  
 445    442    439    436      3       1.590    4.770    0.000    -6.360    -0.000    0.000  
 430    428    425    422      3       0.000000    0.000000    0.000000    0.000000    0.000000    0.000000  
 332    329    331    333      3       9.079    0.000    -9.079    -0.000    -0.000    0.000  
 332    329    328    326      3       9.079    0.000    -9.079    -0.000    -0.000    0.000  
 332    329    331    334      3       9.079    0.000    -9.079    -0.000    -0.000    0.000  
 332    329    328    330      3       9.079    0.000    -9.079    -0.000    -0.000    0.000  
 439    436    435    438      3       0.000000    0.000000    0.000000    0.000000    0.000000    0.000000  
 425    422    421    424      3       0.000000    0.000000    0.000000    0.000000    0.000000    0.000000  
 432    429    428    431      3       0.000000    0.000000    0.000000    0.000000    0.000000    0.000000  
 425    422    421    423      3       0.000000    0.000000    0.000000    0.000000    0.000000    0.000000  
 439    436    435    437      3       0.000000    0.000000    0.000000    0.000000    0.000000    0.000000  
 432    429    428    430      3       0.000000    0.000000    0.000000    0.000000    0.000000    0.000000  
 439    436    435    432      3       0.000000    0.000000    0.000000    0.000000    0.000000    0.000000  
 425    422    421    332      3       0.000000    0.000000    0.000000    0.000000    0.000000    0.000000  
 432    429    428    425      3       0.000000    0.000000    0.000000    0.000000    0.000000    0.000000  
 447    446    327    324      3       1.749336    17.711244    -2.824452    -30.455570    10.061197    0.958068  
 461    460    457    454      3       1.749336    17.711244    -2.824452    -30.455570    10.061197    0.958068  
 454    453    450    447      3       1.749336    17.711244    -2.824452    -30.455570    10.061197    0.958068  
 446    327    324    322      3       1.715    2.845    1.046    -5.607    -0.000    0.000  
 446    327    324    326      3       1.715    2.845    1.046    -5.607    -0.000    0.000  
 467    464    461    460      3       1.749336    17.711244    -2.824452    -30.455570    10.061197    0.958068  
 453    450    447    446      3       1.749336    17.711244    -2.824452    -30.455570    10.061197    0.958068  
 460    457    454    453      3       1.749336    17.711244    -2.824452    -30.455570    10.061197    0.958068  
 453    450    447    452      3       0.000000    0.000000    0.000000    0.000000    0.000000    0.000000  
 467    464    461    466      3       0.000000    0.000000    0.000000    0.000000    0.000000    0.000000  
 460    457    454    458      3       0.000000    0.000000    0.000000    0.000000    0.000000    0.000000  
 460    457    454    459      3       0.000000    0.000000    0.000000    0.000000    0.000000    0.000000  
 453    450    447    451      3       0.000000    0.000000    0.000000    0.000000    0.000000    0.000000  
 467    464    461    465      3       0.000000    0.000000    0.000000    0.000000    0.000000    0.000000  
 459    454    453    455      3       0.772830    15.09003    5.377169    -26.373934    4.616032    0.420126  
 452    447    446    448      3       0.772830    15.09003    5.377169    -26.373934    4.616032    0.420126  
 452    447    446    449      3       0.000000    0.000000    0.000000    0.000000    0.000000    0.000000  
 466    461    460    463      3       0.772830    15.09003    5.377169    -26.373934    4.616032    0.420126  
 451    447    446    448      3       0.000000    0.000000    0.000000    0.000000    0.000000    0.000000  
 458    454    453    455      3       0.000000    0.000000    0.000000    0.000000    0.000000    0.000000  
 451    447    446    449      3       0.000000    0.000000    0.000000    0.000000    0.000000    0.000000  
 466    461    460    462      3       0.000000    0.000000    0.000000    0.000000    0.000000    0.000000  
 465    461    460    463      3       0.000000    0.000000    0.000000    0.000000    0.000000    0.000000  
 459    454    453    456      3       0.000000    0.000000    0.000000    0.000000    0.000000    0.000000  
 465    461    460    462      3       0.000000    0.000000    0.000000    0.000000    0.000000    0.000000  
 458    454    453    456      3       0.000000    0.000000    0.000000    0.000000    0.000000    0.000000  
 451    447    446    327      3       0.000000    0.000000    0.000000    0.000000    0.000000    0.000000  
 466    461    460    457      3       0.000000    0.000000    0.000000    0.000000    0.000000    0.000000  
 465    461    460    457      3       0.000000    0.000000    0.000000    0.000000    0.000000    0.000000  
 458    454    453    450      3       0.000000    0.000000    0.000000    0.000000    0.000000    0.000000  
 452    447    446    327      3       0.000000    0.000000    0.000000    0.000000    0.000000    0.000000  
 459    454    453    450      3       0.000000    0.000000    0.000000    0.000000    0.000000    0.000000  
 448    446    327    324      3       0.000000    0.000000    0.000000    0.000000    0.000000    0.000000  
 449    446    327    324      3       0.000000    0.000000    0.000000    0.000000    0.000000    0.000000  
 456    453    450    447      3       0.000000    0.000000    0.000000    0.000000    0.000000    0.000000  
 462    460    457    454      3       0.000000    0.000000    0.000000    0.000000    0.000000    0.000000  
 463    460    457    454      3       0.000000    0.000000    0.000000    0.000000    0.000000    0.000000  
 468    467    464    461      3       1.590    4.770    0.000    -6.360    -0.000    0.000  
 469    467    464    461      3       1.590    4.770    0.000    -6.360    -0.000    0.000  
 470    467    464    461      3       1.590    4.770    0.000    -6.360    -0.000    0.000  
 455    453    450    447      3       0.000000    0.000000    0.000000    0.000000    0.000000    0.000000  
 327    324    322    321      3       9.079    0.000    -9.079    -0.000    -0.000    0.000  
 327    324    326    328      3       9.079    0.000    -9.079    -0.000    -0.000    0.000  
 327    324    322    325      3       9.079    0.000    -9.079    -0.000    -0.000    0.000  
 327    324    326    323      3       9.079    0.000    -9.079    -0.000    -0.000    0.000  
 464    461    460    463      3       0.000000    0.000000    0.000000    0.000000    0.000000    0.000000  
 450    447    446    449      3       0.000000    0.000000    0.000000    0.000000    0.000000    0.000000  
 457    454    453    456      3       0.000000    0.000000    0.000000    0.000000    0.000000    0.000000  
 450    447    446    448      3       0.000000    0.000000    0.000000    0.000000    0.000000    0.000000  
 464    461    460    462      3       0.000000    0.000000    0.000000    0.000000    0.000000    0.000000  
 457    454    453    455      3       0.000000    0.000000    0.000000    0.000000    0.000000    0.000000  
 464    461    460    457      3       0.000000    0.000000    0.000000    0.000000    0.000000    0.000000  
 450    447    446    327      3       0.000000    0.000000    0.000000    0.000000    0.000000    0.000000  
 457    454    453    450      3       0.000000    0.000000    0.000000    0.000000    0.000000    0.000000  
 
[ dihedrals ]
 13    15    16    17      4       180.000    10.460    2  
 15    13    10    11      4       180.000    10.460    2  
 15    16    18    19      4       180.000    10.460    2  
 16    18    20    21      4       180.000    10.460    2  
 18    20    17    22      4       180.000    10.460    2  
 20    22    23    24      4       180.000    10.460    2  
 22    23    25    26      4       180.000    10.460    2  
 23    25    27    28      4       180.000    10.460    2  
 25    27    24    29      4       180.000    10.460    2  
 27    29    30    31      4       180.000    10.460    2  
 29    30    32    33      4       180.000    10.460    2  
 30    32    34    35      4       180.000    10.460    2  
 32    34    31    36      4       180.000    10.460    2  
 34    36    37    38      4       180.000    10.460    2  
 36    37    39    40      4       180.000    10.460    2  
 37    39    41    42      4       180.000    10.460    2  
 39    41    38    43      4       180.000    10.460    2  
 41    43    44    45      4       180.000    10.460    2  
 43    44    46    47      4       180.000    10.460    2  
 44    46    48    49      4       180.000    10.460    2  
 46    48    45    50      4       180.000    10.460    2  
 48    50    51    52      4       180.000    10.460    2  
 50    51    53    54      4       180.000    10.460    2  
 51    53    55    56      4       180.000    10.460    2  
 52    55    53    57      4       180.000    10.460    2  
 13    11    14    9      4       180.000    10.460    2  
 10    8    9    6      4       180.000    10.460    2  
 8    9    11    12      4       180.000    10.460    2  
 8    6    3    4      4       180.000    10.460    2  
 6    4    2    7      4       180.000    10.460    2  
 3    1    2    184      4       180.000    10.460    2  
 1    2    4    5      4       180.000    10.460    2  
 1    184    181    182      4       180.000    10.460    2  
 47    44    46    43      4       180.000    10.460    2  
 19    16    18    15      4       180.000    10.460    2  
 42    39    37    41      4       180.000    10.460    2  
 14    11    9    13      4       180.000    10.460    2  
 170    172    173    174      4       180.000    10.460    2  
 172    170    167    168      4       180.000    10.460    2  
 172    173    175    176      4       180.000    10.460    2  
 173    175    177    178      4       180.000    10.460    2  
 175    177    174    179      4       180.000    10.460    2  
 177    179    180    181      4       180.000    10.460    2  
 179    180    182    183      4       180.000    10.460    2  
 180    182    184    185      4       180.000    10.460    2  
 170    168    171    166      4       180.000    10.460    2  
 167    165    166    163      4       180.000    10.460    2  
 165    166    168    169      4       180.000    10.460    2  
 165    163    160    161      4       180.000    10.460    2  
 163    161    159    164      4       180.000    10.460    2  
 160    158    159    262      4       180.000    10.460    2  
 158    159    161    162      4       180.000    10.460    2  
 158    262    259    260      4       180.000    10.460    2  
 176    173    175    172      4       180.000    10.460    2  
 171    168    166    170      4       180.000    10.460    2  
 248    250    251    252      4       180.000    10.460    2  
 250    248    245    246      4       180.000    10.460    2  
 250    251    253    254      4       180.000    10.460    2  
 251    253    255    256      4       180.000    10.460    2  
 253    255    252    257      4       180.000    10.460    2  
 255    257    258    259      4       180.000    10.460    2  
 257    258    260    261      4       180.000    10.460    2  
 258    260    262    263      4       180.000    10.460    2  
 248    246    249    244      4       180.000    10.460    2  
 245    243    244    241      4       180.000    10.460    2  
 243    244    246    247      4       180.000    10.460    2  
 243    241    238    239      4       180.000    10.460    2  
 241    239    237    242      4       180.000    10.460    2  
 238    236    237    368      4       180.000    10.460    2  
 236    237    239    240      4       180.000    10.460    2  
 236    368    365    366      4       180.000    10.460    2  
 254    251    253    250      4       180.000    10.460    2  
 249    246    244    248      4       180.000    10.460    2  
 354    356    357    358      4       180.000    10.460    2  
 356    354    351    352      4       180.000    10.460    2  
 356    357    359    360      4       180.000    10.460    2  
 357    359    361    362      4       180.000    10.460    2  
 359    361    358    363      4       180.000    10.460    2  
 361    363    364    365      4       180.000    10.460    2  
 363    364    366    367      4       180.000    10.460    2  
 364    366    368    369      4       180.000    10.460    2  
 354    352    355    350      4       180.000    10.460    2  
 351    349    350    347      4       180.000    10.460    2  
 349    350    352    353      4       180.000    10.460    2  
 349    347    344    345      4       180.000    10.460    2  
 347    345    343    348      4       180.000    10.460    2  
 344    342    343    340      4       180.000    10.460    2  
 342    343    345    346      4       180.000    10.460    2  
 342    340    337    338      4       180.000    10.460    2  
 340    338    336    341      4       180.000    10.460    2  
 337    335    336    333      4       180.000    10.460    2  
 335    336    338    339      4       180.000    10.460    2  
 335    333    330    331      4       180.000    10.460    2  
 333    331    329    334      4       180.000    10.460    2  
 330    328    329    326      4       180.000    10.460    2  
 328    329    331    332      4       180.000    10.460    2  
 328    326    323    324      4       180.000    10.460    2  
 326    324    327    322      4       180.000    10.460    2  
 323    321    322    319      4       180.000    10.460    2  
 321    322    324    325      4       180.000    10.460    2  
 321    319    316    317      4       180.000    10.460    2  
 319    317    315    320      4       180.000    10.460    2  
 316    314    315    370      4       180.000    10.460    2  
 314    315    317    318      4       180.000    10.460    2  
 360    357    359    356      4       180.000    10.460    2  
 355    352    350    354      4       180.000    10.460    2  
 332    329    331    328      4       180.000    10.460    2  
 327    324    322    326      4       180.000    10.460    2  
 
[ pairs ]
 15    18      1                 
 15    20      1                 
 15    22      1                 
 15    14      1                 
 15    8       1                 
 15    9       1                 
 15    21      1                 
 13    18      1                 
 13    19      1                 
 13    20      1                 
 13    8       1                 
 13    9       1                 
 13    6       1                 
 13    12      1                 
 16    17      1                 
 16    20      1                 
 16    22      1                 
 16    10      1                 
 16    11      1                 
 17    18      1                 
 17    19      1                 
 17    23      1                 
 17    24      1                 
 17    10      1                 
 17    11      1                 
 17    21      1                 
 18    23      1                 
 18    24      1                 
 19    20      1                 
 19    21      1                 
 20    25      1                 
 20    27      1                 
 20    26      1                 
 22    25      1                 
 22    27      1                 
 22    29      1                 
 22    21      1                 
 22    28      1                 
 23    24      1                 
 23    27      1                 
 23    29      1                 
 24    25      1                 
 24    30      1                 
 24    31      1                 
 24    26      1                 
 24    28      1                 
 25    30      1                 
 25    31      1                 
 27    32      1                 
 27    34      1                 
 27    26      1                 
 27    33      1                 
 29    32      1                 
 29    34      1                 
 29    36      1                 
 29    28      1                 
 29    35      1                 
 30    31      1                 
 30    34      1                 
 30    36      1                 
 31    32      1                 
 31    37      1                 
 31    38      1                 
 31    33      1                 
 31    35      1                 
 32    37      1                 
 32    38      1                 
 34    39      1                 
 34    41      1                 
 34    33      1                 
 34    40      1                 
 36    39      1                 
 36    41      1                 
 36    42      1                 
 36    43      1                 
 36    35      1                 
 37    38      1                 
 37    41      1                 
 37    43      1                 
 38    39      1                 
 38    42      1                 
 38    44      1                 
 38    45      1                 
 38    40      1                 
 39    44      1                 
 39    45      1                 
 41    46      1                 
 41    47      1                 
 41    48      1                 
 41    40      1                 
 42    43      1                 
 42    40      1                 
 43    46      1                 
 43    48      1                 
 43    50      1                 
 43    49      1                 
 44    45      1                 
 44    48      1                 
 44    50      1                 
 45    46      1                 
 45    47      1                 
 45    51      1                 
 45    52      1                 
 45    49      1                 
 46    51      1                 
 46    52      1                 
 47    48      1                 
 47    49      1                 
 48    53      1                 
 48    55      1                 
 48    54      1                 
 50    53      1                 
 50    55      1                 
 50    49      1                 
 50    56      1                 
 50    57      1                 
 51    52      1                 
 51    55      1                 
 51    57      1                 
 52    53      1                 
 52    54      1                 
 52    56      1                 
 55    54      1                 
 10    11      1                 
 10    14      1                 
 10    9       1                 
 10    3       1                 
 10    4       1                 
 10    12      1                 
 11    8       1                 
 11    6       1                 
 14    8       1                 
 14    12      1                 
  8    1       1                 
  8    2       1                 
  8    7       1                 
  9    3       1                 
  9    4       1                 
  6    1       1                 
  6    2       1                 
 6    184      1                 
  6    5       1                 
 6    12       1                 
  3    4       1                 
  3    2       1                 
 3    181      1                 
 3    182      1                 
  3    5       1                 
  3    7       1                 
  4    1       1                 
 4    184      1                 
 1    179      1                 
 1    180      1                 
 1    185      1                 
  1    7       1                 
 2    181      1                 
 2    182      1                 
 184    5      1                 
  5    7       1                 
 26    28      1                 
 33    35      1                 
 54    56      1                 
 56    57      1                 
 48    47      1                 
 45    47      1                 
 49    47      1                 
 46    58      1                 
 41    47      1                 
 43    58      1                 
 44    59      1                 
 44    60      1                 
 44    61      1                 
 47    62      1                 
 47    63      1                 
 47    64      1                 
 58    65      1                 
 60    62      1                 
 61    62      1                 
 60    63      1                 
 61    63      1                 
 60    64      1                 
 61    64      1                 
 59    66      1                 
 59    67      1                 
 59    68      1                 
 63    65      1                 
 64    65      1                 
 62    69      1                 
 62    70      1                 
 62    71      1                 
 67    69      1                 
 68    69      1                 
 67    70      1                 
 65    72      1                 
 68    70      1                 
 67    71      1                 
 68    71      1                 
 66    73      1                 
 66    74      1                 
 66    75      1                 
 70    72      1                 
 71    72      1                 
 69    76      1                 
 69    77      1                 
 69    78      1                 
 74    76      1                 
 75    76      1                 
 74    77      1                 
 72    79      1                 
 75    77      1                 
 74    78      1                 
 75    78      1                 
 73    80      1                 
 73    81      1                 
 73    82      1                 
 77    79      1                 
 78    79      1                 
 20    19      1                 
 17    19      1                 
 21    19      1                 
 18    83      1                 
 13    19      1                 
 15    83      1                 
 16    84      1                 
 16    85      1                 
 16    86      1                 
 19    87      1                 
 19    88      1                 
 19    89      1                 
 83    90      1                 
 85    87      1                 
 86    87      1                 
 85    88      1                 
 86    88      1                 
 85    89      1                 
 86    89      1                 
 84    91      1                 
 84    92      1                 
 84    93      1                 
 88    90      1                 
 89    90      1                 
 87    94      1                 
 87    95      1                 
 87    96      1                 
 92    94      1                 
 93    94      1                 
 92    95      1                 
 90    97      1                 
 93    95      1                 
 92    96      1                 
 93    96      1                 
 91    98      1                 
 91    99      1                 
 91    100      1                 
 95    97      1                 
 96    97      1                 
 94    101      1                 
 94    102      1                 
 94    103      1                 
 99    101      1                 
 100    101      1                 
 99    102      1                 
 97    104      1                 
 100    102      1                 
 99    103      1                 
 100    103      1                 
 98    105      1                 
 98    106      1                 
 98    107      1                 
 102    104      1                 
 103    104      1                 
 36    42      1                 
 38    42      1                 
 40    42      1                 
 37    108      1                 
 43    42      1                 
 41    108      1                 
 39    109      1                 
 39    110      1                 
 39    111      1                 
 42    112      1                 
 42    113      1                 
 42    114      1                 
 108    115      1                 
 110    112      1                 
 111    112      1                 
 110    113      1                 
 111    113      1                 
 110    114      1                 
 111    114      1                 
 109    116      1                 
 109    117      1                 
 109    118      1                 
 113    115      1                 
 114    115      1                 
 112    119      1                 
 112    120      1                 
 112    121      1                 
 117    119      1                 
 118    119      1                 
 117    120      1                 
 115    122      1                 
 118    120      1                 
 117    121      1                 
 118    121      1                 
 116    123      1                 
 116    124      1                 
 116    125      1                 
 120    122      1                 
 121    122      1                 
 119    126      1                 
 119    127      1                 
 119    128      1                 
 124    126      1                 
 125    126      1                 
 124    127      1                 
 122    129      1                 
 125    127      1                 
 124    128      1                 
 125    128      1                 
 123    130      1                 
 123    131      1                 
 123    132      1                 
 127    129      1                 
 128    129      1                 
 8    14       1                 
 10    14      1                 
 12    14      1                 
 9    133      1                 
 15    14      1                 
 13    133      1                 
 11    134      1                 
 11    135      1                 
 11    136      1                 
 14    137      1                 
 14    138      1                 
 14    139      1                 
 133    140      1                 
 135    137      1                 
 136    137      1                 
 135    138      1                 
 136    138      1                 
 135    139      1                 
 136    139      1                 
 134    141      1                 
 134    142      1                 
 134    143      1                 
 138    140      1                 
 139    140      1                 
 137    144      1                 
 137    145      1                 
 137    146      1                 
 142    144      1                 
 143    144      1                 
 142    145      1                 
 140    147      1                 
 143    145      1                 
 142    146      1                 
 143    146      1                 
 141    148      1                 
 141    149      1                 
 141    150      1                 
 145    147      1                 
 146    147      1                 
 144    151      1                 
 144    152      1                 
 144    153      1                 
 149    151      1                 
 150    151      1                 
 149    152      1                 
 147    154      1                 
 150    152      1                 
 149    153      1                 
 150    153      1                 
 148    155      1                 
 148    156      1                 
 148    157      1                 
 152    154      1                 
 153    154      1                 
 172    175      1                 
 172    177      1                 
 172    179      1                 
 172    171      1                 
 172    165      1                 
 172    166      1                 
 172    178      1                 
 170    175      1                 
 170    176      1                 
 170    177      1                 
 170    165      1                 
 170    166      1                 
 170    163      1                 
 170    169      1                 
 173    174      1                 
 173    177      1                 
 173    179      1                 
 173    167      1                 
 173    168      1                 
 174    175      1                 
 174    176      1                 
 174    180      1                 
 174    181      1                 
 174    167      1                 
 174    168      1                 
 174    178      1                 
 175    180      1                 
 175    181      1                 
 176    177      1                 
 176    178      1                 
 177    182      1                 
 177    184      1                 
 177    183      1                 
 179    182      1                 
 179    184      1                 
 179    178      1                 
 179    185      1                 
 180    181      1                 
 180    184      1                 
 181    182      1                 
 181    183      1                 
 181    185      1                 
 184    183      1                 
 167    168      1                 
 167    171      1                 
 167    166      1                 
 167    160      1                 
 167    161      1                 
 167    169      1                 
 168    165      1                 
 168    163      1                 
 171    165      1                 
 171    169      1                 
 165    158      1                 
 165    159      1                 
 165    164      1                 
 166    160      1                 
 166    161      1                 
 163    158      1                 
 163    159      1                 
 163    262      1                 
 163    162      1                 
 163    169      1                 
 160    161      1                 
 160    159      1                 
 160    259      1                 
 160    260      1                 
 160    162      1                 
 160    164      1                 
 161    158      1                 
 161    262      1                 
 158    257      1                 
 158    258      1                 
 158    263      1                 
 158    164      1                 
 159    259      1                 
 159    260      1                 
 262    162      1                 
 162    164      1                 
 183    185      1                 
 177    176      1                 
 174    176      1                 
 178    176      1                 
 175    186      1                 
 170    176      1                 
 172    186      1                 
 173    187      1                 
 173    188      1                 
 173    189      1                 
 176    190      1                 
 176    191      1                 
 176    192      1                 
 186    193      1                 
 188    190      1                 
 189    190      1                 
 188    191      1                 
 189    191      1                 
 188    192      1                 
 189    192      1                 
 187    194      1                 
 187    195      1                 
 187    196      1                 
 191    193      1                 
 192    193      1                 
 190    197      1                 
 190    198      1                 
 190    199      1                 
 195    197      1                 
 196    197      1                 
 195    198      1                 
 193    200      1                 
 196    198      1                 
 195    199      1                 
 196    199      1                 
 194    201      1                 
 194    202      1                 
 194    203      1                 
 198    200      1                 
 199    200      1                 
 197    204      1                 
 197    205      1                 
 197    206      1                 
 202    204      1                 
 203    204      1                 
 202    205      1                 
 200    207      1                 
 203    205      1                 
 202    206      1                 
 203    206      1                 
 201    208      1                 
 201    209      1                 
 201    210      1                 
 205    207      1                 
 206    207      1                 
 165    171      1                 
 167    171      1                 
 169    171      1                 
 166    211      1                 
 172    171      1                 
 170    211      1                 
 168    212      1                 
 168    213      1                 
 168    214      1                 
 171    215      1                 
 171    216      1                 
 171    217      1                 
 211    218      1                 
 213    215      1                 
 214    215      1                 
 213    216      1                 
 214    216      1                 
 213    217      1                 
 214    217      1                 
 212    219      1                 
 212    220      1                 
 212    221      1                 
 216    218      1                 
 217    218      1                 
 215    222      1                 
 215    223      1                 
 215    224      1                 
 220    222      1                 
 221    222      1                 
 220    223      1                 
 218    225      1                 
 221    223      1                 
 220    224      1                 
 221    224      1                 
 219    226      1                 
 219    227      1                 
 219    228      1                 
 223    225      1                 
 224    225      1                 
 222    229      1                 
 222    230      1                 
 222    231      1                 
 227    229      1                 
 228    229      1                 
 227    230      1                 
 225    232      1                 
 228    230      1                 
 227    231      1                 
 228    231      1                 
 226    233      1                 
 226    234      1                 
 226    235      1                 
 230    232      1                 
 231    232      1                 
 250    253      1                 
 250    255      1                 
 250    257      1                 
 250    249      1                 
 250    243      1                 
 250    244      1                 
 250    256      1                 
 248    253      1                 
 248    254      1                 
 248    255      1                 
 248    243      1                 
 248    244      1                 
 248    241      1                 
 248    247      1                 
 251    252      1                 
 251    255      1                 
 251    257      1                 
 251    245      1                 
 251    246      1                 
 252    253      1                 
 252    254      1                 
 252    258      1                 
 252    259      1                 
 252    245      1                 
 252    246      1                 
 252    256      1                 
 253    258      1                 
 253    259      1                 
 254    255      1                 
 254    256      1                 
 255    260      1                 
 255    262      1                 
 255    261      1                 
 257    260      1                 
 257    262      1                 
 257    256      1                 
 257    263      1                 
 258    259      1                 
 258    262      1                 
 259    260      1                 
 259    261      1                 
 259    263      1                 
 262    261      1                 
 245    246      1                 
 245    249      1                 
 245    244      1                 
 245    238      1                 
 245    239      1                 
 245    247      1                 
 246    243      1                 
 246    241      1                 
 249    243      1                 
 249    247      1                 
 243    236      1                 
 243    237      1                 
 243    242      1                 
 244    238      1                 
 244    239      1                 
 241    236      1                 
 241    237      1                 
 241    368      1                 
 241    240      1                 
 241    247      1                 
 238    239      1                 
 238    237      1                 
 238    365      1                 
 238    366      1                 
 238    240      1                 
 238    242      1                 
 239    236      1                 
 239    368      1                 
 236    363      1                 
 236    364      1                 
 236    369      1                 
 236    242      1                 
 237    365      1                 
 237    366      1                 
 368    240      1                 
 240    242      1                 
 261    263      1                 
 255    254      1                 
 252    254      1                 
 256    254      1                 
 253    264      1                 
 248    254      1                 
 250    264      1                 
 251    265      1                 
 251    266      1                 
 251    267      1                 
 254    268      1                 
 254    269      1                 
 254    270      1                 
 264    271      1                 
 266    268      1                 
 267    268      1                 
 266    269      1                 
 267    269      1                 
 266    270      1                 
 267    270      1                 
 265    272      1                 
 265    273      1                 
 265    274      1                 
 269    271      1                 
 270    271      1                 
 268    275      1                 
 268    276      1                 
 268    277      1                 
 273    275      1                 
 274    275      1                 
 273    276      1                 
 271    278      1                 
 274    276      1                 
 273    277      1                 
 274    277      1                 
 272    279      1                 
 272    280      1                 
 272    281      1                 
 276    278      1                 
 277    278      1                 
 275    282      1                 
 275    283      1                 
 275    284      1                 
 280    282      1                 
 281    282      1                 
 280    283      1                 
 278    285      1                 
 281    283      1                 
 280    284      1                 
 281    284      1                 
 279    286      1                 
 279    287      1                 
 279    288      1                 
 283    285      1                 
 284    285      1                 
 243    249      1                 
 245    249      1                 
 247    249      1                 
 244    289      1                 
 250    249      1                 
 248    289      1                 
 246    290      1                 
 246    291      1                 
 246    292      1                 
 249    293      1                 
 249    294      1                 
 249    295      1                 
 289    296      1                 
 291    293      1                 
 292    293      1                 
 291    294      1                 
 292    294      1                 
 291    295      1                 
 292    295      1                 
 290    297      1                 
 290    298      1                 
 290    299      1                 
 294    296      1                 
 295    296      1                 
 293    300      1                 
 293    301      1                 
 293    302      1                 
 298    300      1                 
 299    300      1                 
 298    301      1                 
 296    303      1                 
 299    301      1                 
 298    302      1                 
 299    302      1                 
 297    304      1                 
 297    305      1                 
 297    306      1                 
 301    303      1                 
 302    303      1                 
 300    307      1                 
 300    308      1                 
 300    309      1                 
 305    307      1                 
 306    307      1                 
 305    308      1                 
 303    310      1                 
 306    308      1                 
 305    309      1                 
 306    309      1                 
 304    311      1                 
 304    312      1                 
 304    313      1                 
 308    310      1                 
 309    310      1                 
 356    359      1                 
 356    361      1                 
 356    363      1                 
 356    355      1                 
 356    349      1                 
 356    350      1                 
 356    362      1                 
 354    359      1                 
 354    360      1                 
 354    361      1                 
 354    349      1                 
 354    350      1                 
 354    347      1                 
 354    353      1                 
 357    358      1                 
 357    361      1                 
 357    363      1                 
 357    351      1                 
 357    352      1                 
 358    359      1                 
 358    360      1                 
 358    364      1                 
 358    365      1                 
 358    351      1                 
 358    352      1                 
 358    362      1                 
 359    364      1                 
 359    365      1                 
 360    361      1                 
 360    362      1                 
 361    366      1                 
 361    368      1                 
 361    367      1                 
 363    366      1                 
 363    368      1                 
 363    362      1                 
 363    369      1                 
 364    365      1                 
 364    368      1                 
 365    366      1                 
 365    367      1                 
 365    369      1                 
 368    367      1                 
 351    352      1                 
 351    355      1                 
 351    350      1                 
 351    344      1                 
 351    345      1                 
 351    353      1                 
 352    349      1                 
 352    347      1                 
 355    349      1                 
 355    353      1                 
 349    342      1                 
 349    343      1                 
 349    348      1                 
 350    344      1                 
 350    345      1                 
 347    342      1                 
 347    343      1                 
 347    340      1                 
 347    346      1                 
 347    353      1                 
 344    345      1                 
 344    343      1                 
 344    337      1                 
 344    338      1                 
 344    346      1                 
 344    348      1                 
 345    342      1                 
 345    340      1                 
 342    335      1                 
 342    336      1                 
 342    341      1                 
 342    348      1                 
 343    337      1                 
 343    338      1                 
 340    335      1                 
 340    336      1                 
 340    333      1                 
 340    339      1                 
 340    346      1                 
 337    338      1                 
 337    336      1                 
 337    330      1                 
 337    331      1                 
 337    339      1                 
 337    341      1                 
 338    335      1                 
 338    333      1                 
 335    328      1                 
 335    329      1                 
 335    334      1                 
 335    341      1                 
 336    330      1                 
 336    331      1                 
 333    328      1                 
 333    329      1                 
 333    332      1                 
 333    326      1                 
 333    339      1                 
 330    331      1                 
 330    329      1                 
 330    332      1                 
 330    323      1                 
 330    324      1                 
 330    334      1                 
 331    328      1                 
 331    326      1                 
 328    327      1                 
 328    321      1                 
 328    322      1                 
 328    334      1                 
 329    323      1                 
 329    324      1                 
 332    326      1                 
 332    334      1                 
 326    321      1                 
 326    322      1                 
 326    319      1                 
 326    325      1                 
 323    324      1                 
 323    327      1                 
 323    322      1                 
 323    316      1                 
 323    317      1                 
 323    325      1                 
 324    321      1                 
 324    319      1                 
 327    321      1                 
 327    325      1                 
 321    314      1                 
 321    315      1                 
 321    320      1                 
 322    316      1                 
 322    317      1                 
 319    314      1                 
 319    315      1                 
 319    318      1                 
 319    325      1                 
 319    370      1                 
 316    317      1                 
 316    315      1                 
 316    318      1                 
 316    320      1                 
 317    314      1                 
 317    370      1                 
 314    320      1                 
 318    320      1                 
 318    370      1                 
 339    341      1                 
 346    348      1                 
 367    369      1                 
 361    360      1                 
 358    360      1                 
 362    360      1                 
 359    371      1                 
 354    360      1                 
 356    371      1                 
 357    372      1                 
 357    373      1                 
 357    374      1                 
 360    375      1                 
 360    376      1                 
 360    377      1                 
 371    378      1                 
 373    375      1                 
 374    375      1                 
 373    376      1                 
 374    376      1                 
 373    377      1                 
 374    377      1                 
 372    379      1                 
 372    380      1                 
 372    381      1                 
 376    378      1                 
 377    378      1                 
 375    382      1                 
 375    383      1                 
 375    384      1                 
 380    382      1                 
 381    382      1                 
 380    383      1                 
 378    385      1                 
 381    383      1                 
 380    384      1                 
 381    384      1                 
 379    386      1                 
 379    387      1                 
 379    388      1                 
 383    385      1                 
 384    385      1                 
 382    389      1                 
 382    390      1                 
 382    391      1                 
 387    389      1                 
 388    389      1                 
 387    390      1                 
 385    392      1                 
 388    390      1                 
 387    391      1                 
 388    391      1                 
 386    393      1                 
 386    394      1                 
 386    395      1                 
 390    392      1                 
 391    392      1                 
 349    355      1                 
 351    355      1                 
 353    355      1                 
 350    396      1                 
 356    355      1                 
 354    396      1                 
 352    397      1                 
 352    398      1                 
 352    399      1                 
 355    400      1                 
 355    401      1                 
 355    402      1                 
 396    403      1                 
 398    400      1                 
 399    400      1                 
 398    401      1                 
 399    401      1                 
 398    402      1                 
 399    402      1                 
 397    404      1                 
 397    405      1                 
 397    406      1                 
 401    403      1                 
 402    403      1                 
 400    407      1                 
 400    408      1                 
 400    409      1                 
 405    407      1                 
 406    407      1                 
 405    408      1                 
 403    410      1                 
 406    408      1                 
 405    409      1                 
 406    409      1                 
 404    411      1                 
 404    412      1                 
 404    413      1                 
 408    410      1                 
 409    410      1                 
 407    414      1                 
 407    415      1                 
 407    416      1                 
 412    414      1                 
 413    414      1                 
 412    415      1                 
 410    417      1                 
 413    415      1                 
 412    416      1                 
 413    416      1                 
 411    418      1                 
 411    419      1                 
 411    420      1                 
 415    417      1                 
 416    417      1                 
 333    332      1                 
 330    332      1                 
 334    332      1                 
 331    421      1                 
 326    332      1                 
 328    421      1                 
 329    422      1                 
 329    423      1                 
 329    424      1                 
 332    425      1                 
 332    426      1                 
 332    427      1                 
 421    428      1                 
 423    425      1                 
 424    425      1                 
 423    426      1                 
 424    426      1                 
 423    427      1                 
 424    427      1                 
 422    429      1                 
 422    430      1                 
 422    431      1                 
 426    428      1                 
 427    428      1                 
 425    432      1                 
 425    433      1                 
 425    434      1                 
 430    432      1                 
 431    432      1                 
 430    433      1                 
 428    435      1                 
 431    433      1                 
 430    434      1                 
 431    434      1                 
 429    436      1                 
 429    437      1                 
 429    438      1                 
 433    435      1                 
 434    435      1                 
 432    439      1                 
 432    440      1                 
 432    441      1                 
 437    439      1                 
 438    439      1                 
 437    440      1                 
 435    442      1                 
 438    440      1                 
 437    441      1                 
 438    441      1                 
 436    443      1                 
 436    444      1                 
 436    445      1                 
 440    442      1                 
 441    442      1                 
 321    327      1                 
 323    327      1                 
 325    327      1                 
 322    446      1                 
 328    327      1                 
 326    446      1                 
 324    447      1                 
 324    448      1                 
 324    449      1                 
 327    450      1                 
 327    451      1                 
 327    452      1                 
 446    453      1                 
 448    450      1                 
 449    450      1                 
 448    451      1                 
 449    451      1                 
 448    452      1                 
 449    452      1                 
 447    454      1                 
 447    455      1                 
 447    456      1                 
 451    453      1                 
 452    453      1                 
 450    457      1                 
 450    458      1                 
 450    459      1                 
 455    457      1                 
 456    457      1                 
 455    458      1                 
 453    460      1                 
 456    458      1                 
 455    459      1                 
 456    459      1                 
 454    461      1                 
 454    462      1                 
 454    463      1                 
 458    460      1                 
 459    460      1                 
 457    464      1                 
 457    465      1                 
 457    466      1                 
 462    464      1                 
 463    464      1                 
 462    465      1                 
 460    467      1                 
 463    465      1                 
 462    466      1                 
 463    466      1                 
 461    468      1                 
 461    469      1                 
 461    470      1                 
 465    467      1                 
 466    467      1                 
 
