GRO made through POLYX
  470
    1PLYX   C1B    1  -0.714  -0.016  -0.022
    1PLYX   C1C    2  -0.661  -0.135  -0.069
    1PLYX   S19    3  -0.585   0.099   0.009
    1PLYX   C1A    4  -0.520  -0.134  -0.081
    1PLYX   H2E    5  -0.724  -0.221  -0.094
    1PLYX   C18    6  -0.462  -0.015  -0.042
    1PLYX   H2F    7  -0.462  -0.219  -0.118
    1PLYX   C16    8  -0.322   0.022  -0.040
    1PLYX   C17    9  -0.267   0.149  -0.038
    1PLYX   S12   10  -0.199  -0.101  -0.038
    1PLYX   C13   11  -0.124   0.147  -0.037
    1PLYX   H2G   12  -0.327   0.240  -0.041
    1PLYX   C01   13  -0.070   0.018  -0.038
    1PLYX   O14   14  -0.041   0.254  -0.036
    1PLYX   C00   15   0.070  -0.018  -0.038
    1PLYX   C02   16   0.124  -0.147  -0.037
    1PLYX   S03   17   0.199   0.101  -0.038
    1PLYX   C04   18   0.267  -0.149  -0.038
    1PLYX   O05   19   0.041  -0.254  -0.036
    1PLYX   C06   20   0.322  -0.022  -0.040
    1PLYX   H2K   21   0.327  -0.240  -0.041
    1PLYX   C08   22   0.462   0.015  -0.042
    1PLYX   C09   23   0.520   0.134  -0.081
    1PLYX   S0A   24   0.585  -0.099   0.009
    1PLYX   C0B   25   0.661   0.135  -0.069
    1PLYX   H2P   26   0.462   0.219  -0.118
    1PLYX   C0C   27   0.714   0.016  -0.022
    1PLYX   H2Q   28   0.724   0.221  -0.094
    1PLYX   C0D   29   0.852  -0.020   0.002
    1PLYX   C0E   30   0.904  -0.125   0.077
    1PLYX   S0F   31   0.982   0.073  -0.069
    1PLYX   C0G   32   1.046  -0.130   0.076
    1PLYX   H2R   33   0.840  -0.195   0.131
    1PLYX   C0H   34   1.105  -0.030   0.002
    1PLYX   H2S   35   1.103  -0.207   0.128
    1PLYX   C0I   36   1.245  -0.003  -0.020
    1PLYX   C0J   37   1.304   0.071  -0.122
    1PLYX   S0K   38   1.365  -0.067   0.089
    1PLYX   C0M   39   1.446   0.075  -0.111
    1PLYX   H2T   40   1.247   0.118  -0.201
    1PLYX   C0N   41   1.497   0.004  -0.003
    1PLYX   O0O   42   1.532   0.138  -0.196
    1PLYX   C0P   43   1.635  -0.013   0.034
    1PLYX   C0R   44   1.687  -0.083   0.144
    1PLYX   S0S   45   1.767   0.057  -0.058
    1PLYX   C0T   46   1.829  -0.082   0.153
    1PLYX   O0U   47   1.600  -0.145   0.229
    1PLYX   C0V   48   1.887  -0.010   0.049
    1PLYX   H2X   49   1.886  -0.133   0.229
    1PLYX   C0X   50   2.029   0.013   0.024
    1PLYX   C0Y   51   2.092   0.043  -0.095
    1PLYX   S0Z   52   2.145   0.005   0.155
    1PLYX   C10   53   2.233   0.058  -0.081
    1PLYX   H31   54   2.039   0.051  -0.190
    1PLYX   C11   55   2.276   0.040   0.048
    1PLYX   H32   56   2.300   0.081  -0.164
    1PLYX   H34   57   2.378   0.045   0.087
    1PLYX   C0I   58   1.826  -0.079   0.504
    1PLYX   C0N   59   1.844  -0.297   0.722
    1PLYX   H0O   60   2.027  -0.032   0.433
    1PLYX   H0P   61   1.731   0.101   0.588
    1PLYX   O0Q   62   2.001  -0.200   0.941
    1PLYX   H0R   63   1.935  -0.473   0.642
    1PLYX   H0S   64   1.647  -0.344   0.793
    1PLYX   C0T   65   2.018  -0.401   1.143
    1PLYX   C0U   66   2.187  -0.296   1.378
    1PLYX   H0V   67   2.111  -0.576   1.060
    1PLYX   H0W   68   1.822  -0.449   1.212
    1PLYX   O0X   69   2.204  -0.497   1.580
    1PLYX   H0Y   70   2.383  -0.248   1.310
    1PLYX   H0Z   71   2.094  -0.121   1.461
    1PLYX   C10   72   2.363  -0.400   1.798
    1PLYX   C11   73   2.379  -0.618   2.017
    1PLYX   H12   74   2.559  -0.353   1.730
    1PLYX   H13   75   2.270  -0.226   1.881
    1PLYX   O14   76   2.538  -0.521   2.235
    1PLYX   H15   77   2.471  -0.794   1.935
    1PLYX   H16   78   2.183  -0.665   2.086
    1PLYX   C17   79   2.555  -0.722   2.437
    1PLYX   H18   80   2.671  -0.649   2.600
    1PLYX   H19   81   2.648  -0.897   2.354
    1PLYX   H1A   82   2.358  -0.772   2.506
    1PLYX   C0I   83   0.008  -0.505   0.156
    1PLYX   C0N   84  -0.248  -0.674   0.126
    1PLYX   H0O   85   0.182  -0.629   0.108
    1PLYX   H0P   86   0.023  -0.430   0.362
    1PLYX   O0Q   87  -0.238  -0.895   0.309
    1PLYX   H0R   88  -0.265  -0.748  -0.073
    1PLYX   H0S   89  -0.420  -0.554   0.173
    1PLYX   C0T   90  -0.475  -1.052   0.282
    1PLYX   C0U   91  -0.464  -1.290   0.478
    1PLYX   H0V   92  -0.489  -1.125   0.081
    1PLYX   H0W   93  -0.645  -0.931   0.326
    1PLYX   O0X   94  -0.701  -1.447   0.450
    1PLYX   H0Y   95  -0.294  -1.411   0.433
    1PLYX   H0Z   96  -0.450  -1.217   0.679
    1PLYX   C10   97  -0.690  -1.669   0.631
    1PLYX   C11   98  -0.947  -1.837   0.603
    1PLYX   H12   99  -0.520  -1.790   0.587
    1PLYX   H13  100  -0.676  -1.596   0.832
    1PLYX   O14  101  -0.936  -2.059   0.784
    1PLYX   H15  102  -0.962  -1.910   0.401
    1PLYX   H16  103  -1.117  -1.716   0.648
    1PLYX   C17  104  -1.173  -2.216   0.757
    1PLYX   H18  105  -1.165  -2.379   0.893
    1PLYX   H19  106  -1.186  -2.289   0.556
    1PLYX   H1A  107  -1.344  -2.095   0.800
    1PLYX   C0I  108   1.676   0.077  -0.469
    1PLYX   C0N  109   1.700   0.299  -0.682
    1PLYX   H0O  110   1.877   0.027  -0.394
    1PLYX   H0P  111   1.582  -0.101  -0.558
    1PLYX   O0Q  112   1.860   0.204  -0.900
    1PLYX   H0R  113   1.791   0.472  -0.597
    1PLYX   H0S  114   1.505   0.348  -0.756
    1PLYX   C0T  115   1.882   0.410  -1.098
    1PLYX   C0U  116   2.054   0.308  -1.332
    1PLYX   H0V  117   1.974   0.582  -1.010
    1PLYX   H0W  118   1.687   0.460  -1.169
    1PLYX   O0X  119   2.076   0.513  -1.530
    1PLYX   H0Y  120   2.249   0.257  -1.261
    1PLYX   H0Z  121   1.962   0.135  -1.420
    1PLYX   C10  122   2.238   0.419  -1.747
    1PLYX   C11  123   2.259   0.640  -1.961
    1PLYX   H12  124   2.432   0.369  -1.676
    1PLYX   H13  125   2.145   0.247  -1.835
    1PLYX   O14  126   2.421   0.547  -2.178
    1PLYX   H15  127   2.351   0.815  -1.874
    1PLYX   H16  128   2.065   0.691  -2.032
    1PLYX   C17  129   2.443   0.752  -2.376
    1PLYX   H18  130   2.561   0.681  -2.538
    1PLYX   H19  131   2.535   0.925  -2.288
    1PLYX   H1A  132   2.248   0.804  -2.448
    1PLYX   C0I  133  -0.008   0.505   0.156
    1PLYX   C0N  134   0.248   0.674   0.126
    1PLYX   H0O  135  -0.182   0.629   0.108
    1PLYX   H0P  136  -0.023   0.430   0.362
    1PLYX   O0Q  137   0.238   0.895   0.309
    1PLYX   H0R  138   0.265   0.748  -0.073
    1PLYX   H0S  139   0.420   0.554   0.173
    1PLYX   C0T  140   0.475   1.052   0.282
    1PLYX   C0U  141   0.464   1.290   0.478
    1PLYX   H0V  142   0.489   1.125   0.081
    1PLYX   H0W  143   0.645   0.931   0.326
    1PLYX   O0X  144   0.701   1.447   0.450
    1PLYX   H0Y  145   0.294   1.411   0.433
    1PLYX   H0Z  146   0.450   1.217   0.679
    1PLYX   C10  147   0.690   1.669   0.631
    1PLYX   C11  148   0.947   1.837   0.603
    1PLYX   H12  149   0.520   1.790   0.587
    1PLYX   H13  150   0.676   1.596   0.832
    1PLYX   O14  151   0.936   2.059   0.784
    1PLYX   H15  152   0.962   1.910   0.401
    1PLYX   H16  153   1.117   1.716   0.648
    1PLYX   C17  154   1.173   2.216   0.757
    1PLYX   H18  155   1.165   2.379   0.893
    1PLYX   H19  156   1.186   2.289   0.556
    1PLYX   H1A  157   1.344   2.095   0.800
    1PLYX   C1B  158  -2.280  -0.012   0.002
    1PLYX   C1C  159  -2.227  -0.131  -0.045
    1PLYX   S19  160  -2.151   0.103   0.033
    1PLYX   C1A  161  -2.086  -0.130  -0.057
    1PLYX   H2E  162  -2.290  -0.217  -0.070
    1PLYX   C18  163  -2.028  -0.011  -0.018
    1PLYX   H2F  164  -2.028  -0.215  -0.094
    1PLYX   C16  165  -1.888   0.026  -0.016
    1PLYX   C17  166  -1.833   0.153  -0.014
    1PLYX   S12  167  -1.765  -0.097  -0.014
    1PLYX   C13  168  -1.690   0.151  -0.013
    1PLYX   H2G  169  -1.893   0.244  -0.017
    1PLYX   C01  170  -1.636   0.022  -0.014
    1PLYX   O14  171  -1.607   0.258  -0.012
    1PLYX   C00  172  -1.496  -0.014  -0.014
    1PLYX   C02  173  -1.442  -0.143  -0.013
    1PLYX   S03  174  -1.367   0.105  -0.014
    1PLYX   C04  175  -1.299  -0.145  -0.014
    1PLYX   O05  176  -1.525  -0.250  -0.012
    1PLYX   C06  177  -1.244  -0.018  -0.016
    1PLYX   H2K  178  -1.239  -0.236  -0.017
    1PLYX   C08  179  -1.104   0.019  -0.018
    1PLYX   C09  180  -1.046   0.138  -0.057
    1PLYX   S0A  181  -0.981  -0.095   0.033
    1PLYX   C0B  182  -0.905   0.139  -0.045
    1PLYX   H2P  183  -1.104   0.223  -0.094
    1PLYX   C0C  184  -0.852   0.020   0.002
    1PLYX   H2Q  185  -0.842   0.225  -0.070
    1PLYX   C0I  186  -1.558  -0.501   0.180
    1PLYX   C0N  187  -1.814  -0.670   0.150
    1PLYX   H0O  188  -1.384  -0.625   0.132
    1PLYX   H0P  189  -1.543  -0.426   0.386
    1PLYX   O0Q  190  -1.804  -0.891   0.333
    1PLYX   H0R  191  -1.831  -0.744  -0.049
    1PLYX   H0S  192  -1.986  -0.550   0.197
    1PLYX   C0T  193  -2.041  -1.048   0.306
    1PLYX   C0U  194  -2.030  -1.286   0.502
    1PLYX   H0V  195  -2.055  -1.121   0.105
    1PLYX   H0W  196  -2.211  -0.927   0.350
    1PLYX   O0X  197  -2.267  -1.443   0.474
    1PLYX   H0Y  198  -1.860  -1.407   0.457
    1PLYX   H0Z  199  -2.016  -1.213   0.703
    1PLYX   C10  200  -2.256  -1.665   0.655
    1PLYX   C11  201  -2.513  -1.833   0.627
    1PLYX   H12  202  -2.086  -1.786   0.611
    1PLYX   H13  203  -2.242  -1.592   0.856
    1PLYX   O14  204  -2.502  -2.055   0.808
    1PLYX   H15  205  -2.528  -1.906   0.425
    1PLYX   H16  206  -2.683  -1.712   0.672
    1PLYX   C17  207  -2.739  -2.212   0.781
    1PLYX   H18  208  -2.731  -2.375   0.917
    1PLYX   H19  209  -2.752  -2.285   0.580
    1PLYX   H1A  210  -2.910  -2.091   0.824
    1PLYX   C0I  211  -1.574   0.509   0.180
    1PLYX   C0N  212  -1.318   0.678   0.150
    1PLYX   H0O  213  -1.748   0.633   0.132
    1PLYX   H0P  214  -1.589   0.434   0.386
    1PLYX   O0Q  215  -1.328   0.899   0.333
    1PLYX   H0R  216  -1.301   0.752  -0.049
    1PLYX   H0S  217  -1.146   0.558   0.197
    1PLYX   C0T  218  -1.091   1.056   0.306
    1PLYX   C0U  219  -1.102   1.294   0.502
    1PLYX   H0V  220  -1.077   1.129   0.105
    1PLYX   H0W  221  -0.921   0.935   0.350
    1PLYX   O0X  222  -0.865   1.451   0.474
    1PLYX   H0Y  223  -1.272   1.415   0.457
    1PLYX   H0Z  224  -1.116   1.221   0.703
    1PLYX   C10  225  -0.876   1.673   0.655
    1PLYX   C11  226  -0.619   1.841   0.627
    1PLYX   H12  227  -1.046   1.794   0.611
    1PLYX   H13  228  -0.890   1.600   0.856
    1PLYX   O14  229  -0.630   2.063   0.808
    1PLYX   H15  230  -0.604   1.914   0.425
    1PLYX   H16  231  -0.449   1.720   0.672
    1PLYX   C17  232  -0.393   2.220   0.781
    1PLYX   H18  233  -0.401   2.383   0.917
    1PLYX   H19  234  -0.380   2.293   0.580
    1PLYX   H1A  235  -0.222   2.099   0.824
    1PLYX   C1B  236  -3.846  -0.008   0.026
    1PLYX   C1C  237  -3.793  -0.127  -0.021
    1PLYX   S19  238  -3.717   0.107   0.057
    1PLYX   C1A  239  -3.652  -0.126  -0.033
    1PLYX   H2E  240  -3.856  -0.213  -0.046
    1PLYX   C18  241  -3.594  -0.007   0.006
    1PLYX   H2F  242  -3.594  -0.211  -0.070
    1PLYX   C16  243  -3.454   0.030   0.008
    1PLYX   C17  244  -3.399   0.157   0.010
    1PLYX   S12  245  -3.331  -0.093   0.010
    1PLYX   C13  246  -3.256   0.155   0.011
    1PLYX   H2G  247  -3.459   0.248   0.007
    1PLYX   C01  248  -3.202   0.026   0.010
    1PLYX   O14  249  -3.173   0.262   0.012
    1PLYX   C00  250  -3.062  -0.010   0.010
    1PLYX   C02  251  -3.008  -0.139   0.011
    1PLYX   S03  252  -2.933   0.109   0.010
    1PLYX   C04  253  -2.865  -0.141   0.010
    1PLYX   O05  254  -3.091  -0.246   0.012
    1PLYX   C06  255  -2.810  -0.014   0.008
    1PLYX   H2K  256  -2.805  -0.232   0.007
    1PLYX   C08  257  -2.670   0.023   0.006
    1PLYX   C09  258  -2.612   0.142  -0.033
    1PLYX   S0A  259  -2.547  -0.091   0.057
    1PLYX   C0B  260  -2.471   0.143  -0.021
    1PLYX   H2P  261  -2.670   0.227  -0.070
    1PLYX   C0C  262  -2.418   0.024   0.026
    1PLYX   H2Q  263  -2.408   0.229  -0.046
    1PLYX   C0I  264  -3.124  -0.497   0.204
    1PLYX   C0N  265  -3.380  -0.666   0.174
    1PLYX   H0O  266  -2.950  -0.621   0.156
    1PLYX   H0P  267  -3.109  -0.422   0.410
    1PLYX   O0Q  268  -3.370  -0.887   0.357
    1PLYX   H0R  269  -3.397  -0.740  -0.025
    1PLYX   H0S  270  -3.552  -0.546   0.221
    1PLYX   C0T  271  -3.607  -1.044   0.330
    1PLYX   C0U  272  -3.596  -1.282   0.526
    1PLYX   H0V  273  -3.621  -1.117   0.129
    1PLYX   H0W  274  -3.777  -0.923   0.374
    1PLYX   O0X  275  -3.833  -1.439   0.498
    1PLYX   H0Y  276  -3.426  -1.403   0.481
    1PLYX   H0Z  277  -3.582  -1.209   0.727
    1PLYX   C10  278  -3.822  -1.661   0.679
    1PLYX   C11  279  -4.079  -1.829   0.651
    1PLYX   H12  280  -3.652  -1.782   0.635
    1PLYX   H13  281  -3.808  -1.588   0.880
    1PLYX   O14  282  -4.068  -2.051   0.832
    1PLYX   H15  283  -4.094  -1.902   0.449
    1PLYX   H16  284  -4.249  -1.708   0.696
    1PLYX   C17  285  -4.305  -2.208   0.805
    1PLYX   H18  286  -4.297  -2.371   0.941
    1PLYX   H19  287  -4.318  -2.281   0.604
    1PLYX   H1A  288  -4.476  -2.087   0.848
    1PLYX   C0I  289  -3.140   0.513   0.204
    1PLYX   C0N  290  -2.884   0.682   0.174
    1PLYX   H0O  291  -3.314   0.637   0.156
    1PLYX   H0P  292  -3.155   0.438   0.410
    1PLYX   O0Q  293  -2.894   0.903   0.357
    1PLYX   H0R  294  -2.867   0.756  -0.025
    1PLYX   H0S  295  -2.712   0.562   0.221
    1PLYX   C0T  296  -2.657   1.060   0.330
    1PLYX   C0U  297  -2.668   1.298   0.526
    1PLYX   H0V  298  -2.643   1.133   0.129
    1PLYX   H0W  299  -2.487   0.939   0.374
    1PLYX   O0X  300  -2.431   1.455   0.498
    1PLYX   H0Y  301  -2.838   1.419   0.481
    1PLYX   H0Z  302  -2.682   1.225   0.727
    1PLYX   C10  303  -2.442   1.677   0.679
    1PLYX   C11  304  -2.185   1.845   0.651
    1PLYX   H12  305  -2.612   1.798   0.635
    1PLYX   H13  306  -2.456   1.604   0.880
    1PLYX   O14  307  -2.196   2.067   0.832
    1PLYX   H15  308  -2.170   1.918   0.449
    1PLYX   H16  309  -2.015   1.724   0.696
    1PLYX   C17  310  -1.959   2.224   0.805
    1PLYX   H18  311  -1.967   2.387   0.941
    1PLYX   H19  312  -1.946   2.297   0.604
    1PLYX   H1A  313  -1.788   2.103   0.848
    1PLYX   C20  314  -6.974  -0.028   0.120
    1PLYX   C21  315  -6.931  -0.046  -0.009
    1PLYX   S1Y  316  -6.843   0.007   0.227
    1PLYX   C1Z  317  -6.790  -0.031  -0.023
    1PLYX   H22  318  -6.998  -0.069  -0.092
    1PLYX   C1X  319  -6.727  -0.001   0.096
    1PLYX   H23  320  -6.737  -0.039  -0.118
    1PLYX   C1V  321  -6.585   0.022   0.121
    1PLYX   C1W  322  -6.527   0.094   0.225
    1PLYX   S1R  323  -6.465  -0.045   0.014
    1PLYX   C1S  324  -6.385   0.095   0.216
    1PLYX   H24  325  -6.584   0.145   0.301
    1PLYX   C1Q  326  -6.333   0.025   0.106
    1PLYX   O1T  327  -6.298   0.157   0.301
    1PLYX   C1M  328  -6.195   0.008   0.069
    1PLYX   C1N  329  -6.144  -0.063  -0.039
    1PLYX   S1J  330  -6.063   0.079   0.161
    1PLYX   C1K  331  -6.002  -0.059  -0.050
    1PLYX   O1O  332  -6.230  -0.126  -0.124
    1PLYX   C1I  333  -5.943   0.015   0.052
    1PLYX   H28  334  -5.945  -0.106  -0.129
    1PLYX   C1G  335  -5.803   0.042   0.074
    1PLYX   C1H  336  -5.744   0.142   0.148
    1PLYX   S1E  337  -5.680  -0.061   0.003
    1PLYX   C1F  338  -5.602   0.137   0.149
    1PLYX   H2C  339  -5.801   0.219   0.200
    1PLYX   C1D  340  -5.550   0.032   0.074
    1PLYX   H2D  341  -5.538   0.207   0.203
    1PLYX   C1B  342  -5.412  -0.004   0.050
    1PLYX   C1C  343  -5.359  -0.123   0.003
    1PLYX   S19  344  -5.283   0.111   0.081
    1PLYX   C1A  345  -5.218  -0.122  -0.009
    1PLYX   H2E  346  -5.422  -0.209  -0.022
    1PLYX   C18  347  -5.160  -0.003   0.030
    1PLYX   H2F  348  -5.160  -0.207  -0.046
    1PLYX   C16  349  -5.020   0.034   0.032
    1PLYX   C17  350  -4.965   0.161   0.034
    1PLYX   S12  351  -4.897  -0.089   0.034
    1PLYX   C13  352  -4.822   0.159   0.035
    1PLYX   H2G  353  -5.025   0.252   0.031
    1PLYX   C01  354  -4.768   0.030   0.034
    1PLYX   O14  355  -4.739   0.266   0.036
    1PLYX   C00  356  -4.628  -0.006   0.034
    1PLYX   C02  357  -4.574  -0.135   0.035
    1PLYX   S03  358  -4.499   0.113   0.034
    1PLYX   C04  359  -4.431  -0.137   0.034
    1PLYX   O05  360  -4.657  -0.242   0.036
    1PLYX   C06  361  -4.376  -0.010   0.032
    1PLYX   H2K  362  -4.371  -0.228   0.031
    1PLYX   C08  363  -4.236   0.027   0.030
    1PLYX   C09  364  -4.178   0.146  -0.009
    1PLYX   S0A  365  -4.113  -0.087   0.081
    1PLYX   C0B  366  -4.037   0.147   0.003
    1PLYX   H2P  367  -4.236   0.231  -0.046
    1PLYX   C0C  368  -3.984   0.028   0.050
    1PLYX   H2Q  369  -3.974   0.233  -0.022
    1PLYX   H33  370  -7.076  -0.033   0.159
    1PLYX   C0I  371  -4.690  -0.493   0.228
    1PLYX   C0N  372  -4.946  -0.662   0.198
    1PLYX   H0O  373  -4.516  -0.617   0.180
    1PLYX   H0P  374  -4.675  -0.418   0.434
    1PLYX   O0Q  375  -4.936  -0.883   0.381
    1PLYX   H0R  376  -4.963  -0.736  -0.001
    1PLYX   H0S  377  -5.118  -0.542   0.245
    1PLYX   C0T  378  -5.173  -1.040   0.354
    1PLYX   C0U  379  -5.162  -1.278   0.550
    1PLYX   H0V  380  -5.187  -1.113   0.153
    1PLYX   H0W  381  -5.343  -0.919   0.398
    1PLYX   O0X  382  -5.399  -1.435   0.522
    1PLYX   H0Y  383  -4.992  -1.399   0.505
    1PLYX   H0Z  384  -5.148  -1.205   0.751
    1PLYX   C10  385  -5.388  -1.657   0.703
    1PLYX   C11  386  -5.645  -1.825   0.675
    1PLYX   H12  387  -5.218  -1.778   0.659
    1PLYX   H13  388  -5.374  -1.584   0.904
    1PLYX   O14  389  -5.634  -2.047   0.856
    1PLYX   H15  390  -5.660  -1.898   0.473
    1PLYX   H16  391  -5.815  -1.704   0.720
    1PLYX   C17  392  -5.871  -2.204   0.829
    1PLYX   H18  393  -5.863  -2.367   0.965
    1PLYX   H19  394  -5.884  -2.277   0.628
    1PLYX   H1A  395  -6.042  -2.083   0.872
    1PLYX   C0I  396  -4.706   0.517   0.228
    1PLYX   C0N  397  -4.450   0.686   0.198
    1PLYX   H0O  398  -4.880   0.641   0.180
    1PLYX   H0P  399  -4.721   0.442   0.434
    1PLYX   O0Q  400  -4.460   0.907   0.381
    1PLYX   H0R  401  -4.433   0.760  -0.001
    1PLYX   H0S  402  -4.278   0.566   0.245
    1PLYX   C0T  403  -4.223   1.064   0.354
    1PLYX   C0U  404  -4.234   1.302   0.550
    1PLYX   H0V  405  -4.209   1.137   0.153
    1PLYX   H0W  406  -4.053   0.943   0.398
    1PLYX   O0X  407  -3.997   1.459   0.522
    1PLYX   H0Y  408  -4.404   1.423   0.505
    1PLYX   H0Z  409  -4.248   1.229   0.751
    1PLYX   C10  410  -4.008   1.681   0.703
    1PLYX   C11  411  -3.751   1.849   0.675
    1PLYX   H12  412  -4.178   1.802   0.659
    1PLYX   H13  413  -4.022   1.608   0.904
    1PLYX   O14  414  -3.762   2.071   0.856
    1PLYX   H15  415  -3.736   1.922   0.473
    1PLYX   H16  416  -3.581   1.728   0.720
    1PLYX   C17  417  -3.525   2.228   0.829
    1PLYX   H18  418  -3.533   2.391   0.965
    1PLYX   H19  419  -3.512   2.301   0.628
    1PLYX   H1A  420  -3.354   2.107   0.872
    1PLYX   C0I  421  -6.374  -0.065  -0.397
    1PLYX   C0N  422  -6.398  -0.287  -0.610
    1PLYX   H0O  423  -6.575  -0.015  -0.322
    1PLYX   H0P  424  -6.280   0.113  -0.486
    1PLYX   O0Q  425  -6.558  -0.192  -0.828
    1PLYX   H0R  426  -6.489  -0.460  -0.525
    1PLYX   H0S  427  -6.203  -0.336  -0.684
    1PLYX   C0T  428  -6.580  -0.398  -1.026
    1PLYX   C0U  429  -6.752  -0.296  -1.260
    1PLYX   H0V  430  -6.672  -0.570  -0.938
    1PLYX   H0W  431  -6.385  -0.448  -1.097
    1PLYX   O0X  432  -6.774  -0.501  -1.458
    1PLYX   H0Y  433  -6.947  -0.245  -1.189
    1PLYX   H0Z  434  -6.660  -0.123  -1.348
    1PLYX   C10  435  -6.936  -0.407  -1.675
    1PLYX   C11  436  -6.957  -0.628  -1.889
    1PLYX   H12  437  -7.130  -0.357  -1.604
    1PLYX   H13  438  -6.843  -0.235  -1.763
    1PLYX   O14  439  -7.119  -0.535  -2.106
    1PLYX   H15  440  -7.049  -0.803  -1.802
    1PLYX   H16  441  -6.763  -0.679  -1.960
    1PLYX   C17  442  -7.141  -0.740  -2.304
    1PLYX   H18  443  -7.259  -0.669  -2.466
    1PLYX   H19  444  -7.233  -0.913  -2.216
    1PLYX   H1A  445  -6.946  -0.792  -2.376
    1PLYX   C0I  446  -6.524   0.091   0.576
    1PLYX   C0N  447  -6.542   0.309   0.794
    1PLYX   H0O  448  -6.725   0.044   0.505
    1PLYX   H0P  449  -6.429  -0.089   0.660
    1PLYX   O0Q  450  -6.699   0.212   1.013
    1PLYX   H0R  451  -6.633   0.485   0.714
    1PLYX   H0S  452  -6.345   0.356   0.865
    1PLYX   C0T  453  -6.716   0.413   1.215
    1PLYX   C0U  454  -6.885   0.308   1.450
    1PLYX   H0V  455  -6.809   0.588   1.132
    1PLYX   H0W  456  -6.520   0.461   1.284
    1PLYX   O0X  457  -6.902   0.509   1.652
    1PLYX   H0Y  458  -7.081   0.260   1.382
    1PLYX   H0Z  459  -6.792   0.133   1.533
    1PLYX   C10  460  -7.061   0.412   1.870
    1PLYX   C11  461  -7.077   0.630   2.089
    1PLYX   H12  462  -7.257   0.365   1.802
    1PLYX   H13  463  -6.968   0.238   1.953
    1PLYX   O14  464  -7.236   0.533   2.307
    1PLYX   H15  465  -7.169   0.806   2.007
    1PLYX   H16  466  -6.881   0.677   2.158
    1PLYX   C17  467  -7.253   0.734   2.509
    1PLYX   H18  468  -7.369   0.661   2.672
    1PLYX   H19  469  -7.346   0.909   2.426
    1PLYX   H1A  470  -7.056   0.784   2.578
  10.04000   4.77000   5.21000
