; 
; 
; 
;              An extender, a parser, a website -- are you getting it?????
;                                  ITP made through POLYX
; 
; 
; 
 
 
[ moleculetype ]
; Name               nrexcl

   UNK         3                 
 
[ atoms ]
    1       opls_846      1         UNK        C1B         1       -0.168083   12.0110   
    2       opls_847      1         UNK        C1C         1       -0.151428   12.0110   
    3       opls_844      1         UNK        S19         1       0.290780   32.0670   
    4       opls_845      1         UNK        C1A         1       -0.149194   12.0110   
    5       opls_884      1         UNK        H2E         1       0.163081    1.0080   
    6       opls_843      1         UNK        C18         1       -0.170705   12.0110   
    7       opls_885      1         UNK        H2F         1       0.164237    1.0080   
    8       opls_841      1         UNK        C16         1       -0.187519   12.0110   
    9       opls_842      1         UNK        C17         1       -0.192345   12.0110   
    10      opls_837      1         UNK        S12         1       0.330618   32.0670   
    11      opls_838      1         UNK        C13         1       0.333657   12.0110   
    12      opls_886      1         UNK        H2G         1       0.164906    1.0080   
    13      opls_801      1         UNK        C01         1       -0.214175   12.0110   
    14      opls_839      1         UNK        O14         1       -0.467562   15.9990   
    15      opls_800      1         UNK        C00         1       -0.214175   12.0110   
    16      opls_840      1         UNK        C15         1       -0.273063   12.0110   
    17      opls_802      1         UNK        C02         1       0.333657   12.0110   
    18      opls_803      1         UNK        S03         1       0.330618   32.0670   
    19      opls_887      1         UNK        H2H         1       0.169106    1.0080   
    20      opls_888      1         UNK        H2I         1       0.169228    1.0080   
    21      opls_889      1         UNK        H2J         1       0.187190    1.0080   
    22      opls_804      1         UNK        C04         1       -0.192345   12.0110   
    23      opls_805      1         UNK        O05         1       -0.467562   15.9990   
    24      opls_806      1         UNK        C06         1       -0.187519   12.0110   
    25      opls_890      1         UNK        H2K         1       0.164906    1.0080   
    26      opls_807      1         UNK        C07         1       -0.273063   12.0110   
    27      opls_808      1         UNK        C08         1       -0.170705   12.0110   
    28      opls_891      1         UNK        H2M         1       0.169106    1.0080   
    29      opls_892      1         UNK        H2N         1       0.169228    1.0080   
    30      opls_893      1         UNK        H2O         1       0.187190    1.0080   
    31      opls_809      1         UNK        C09         1       -0.149194   12.0110   
    32      opls_810      1         UNK        S0A         1       0.290780   32.0670   
    33      opls_811      1         UNK        C0B         1       -0.151429   12.0110   
    34      opls_894      1         UNK        H2P         1       0.164237    1.0080   
    35      opls_812      1         UNK        C0C         1       -0.168082   12.0110   
    36      opls_895      1         UNK        H2Q         1       0.163081    1.0080   
    37      opls_813      1         UNK        C0D         1       -0.168434   12.0110   
    38      opls_814      1         UNK        C0E         1       -0.151315   12.0110   
    39      opls_815      1         UNK        S0F         1       0.290545   32.0670   
    40      opls_816      1         UNK        C0G         1       -0.149320   12.0110   
    41      opls_896      1         UNK        H2R         1       0.162906    1.0080   
    42      opls_817      1         UNK        C0H         1       -0.170432   12.0110   
    43      opls_897      1         UNK        H2S         1       0.164169    1.0080   
    44      opls_818      1         UNK        C0I         1       -0.188106   12.0110   
    45      opls_819      1         UNK        C0J         1       -0.192207   12.0110   
    46      opls_820      1         UNK        S0K         1       0.330003   32.0670   
    47      opls_821      1         UNK        C0M         1       0.332980   12.0110   
    48      opls_898      1         UNK        H2T         1       0.164546    1.0080   
    49      opls_822      1         UNK        C0N         1       -0.213307   12.0110   
    50      opls_823      1         UNK        O0O         1       -0.467556   15.9990   
    51      opls_824      1         UNK        C0P         1       -0.216402   12.0110   
    52      opls_825      1         UNK        C0Q         1       -0.272784   12.0110   
    53      opls_826      1         UNK        C0R         1       0.332897   12.0110   
    54      opls_827      1         UNK        S0S         1       0.328690   32.0670   
    55      opls_899      1         UNK        H2U         1       0.168712    1.0080   
    56      opls_9500      1         UNK        H2V         1       0.168784    1.0080   
    57      opls_9501      1         UNK        H2W         1       0.186878    1.0080   
    58      opls_828      1         UNK        C0T         1       -0.190147   12.0110   
    59      opls_829      1         UNK        O0U         1       -0.467352   15.9990   
    60      opls_830      1         UNK        C0V         1       -0.178020   12.0110   
    61      opls_9502      1         UNK        H2X         1       0.163135    1.0080   
    62      opls_831      1         UNK        C0W         1       -0.272655   12.0110   
    63      opls_832      1         UNK        C0X         1       -0.188267   12.0110   
    64      opls_9503      1         UNK        H2Y         1       0.168506    1.0080   
    65      opls_9504      1         UNK        H2Z         1       0.169110    1.0080   
    66      opls_9505      1         UNK        H30         1       0.186748    1.0080   
    67      opls_833      1         UNK        C0Y         1       -0.136648   12.0110   
    68      opls_834      1         UNK        S0Z         1       0.281702   32.0670   
    69      opls_835      1         UNK        C10         1       -0.109687   12.0110   
    70      opls_9506      1         UNK        H31         1       0.161989    1.0080   
    71      opls_836      1         UNK        C11         1       -0.364927   12.0110   
    72      opls_9507      1         UNK        H32         1       0.152956    1.0080   
    73      opls_9509      1         UNK        H34         1       0.183580    1.0080   
    74      opls_846      1         UNK        C1B         1       -0.168083   12.0110   
    75      opls_847      1         UNK        C1C         1       -0.151428   12.0110   
    76      opls_844      1         UNK        S19         1       0.290780   32.0670   
    77      opls_845      1         UNK        C1A         1       -0.149194   12.0110   
    78      opls_884      1         UNK        H2E         1       0.163081    1.0080   
    79      opls_843      1         UNK        C18         1       -0.170705   12.0110   
    80      opls_885      1         UNK        H2F         1       0.164237    1.0080   
    81      opls_841      1         UNK        C16         1       -0.187519   12.0110   
    82      opls_842      1         UNK        C17         1       -0.192345   12.0110   
    83      opls_837      1         UNK        S12         1       0.330618   32.0670   
    84      opls_838      1         UNK        C13         1       0.333657   12.0110   
    85      opls_886      1         UNK        H2G         1       0.164906    1.0080   
    86      opls_801      1         UNK        C01         1       -0.214175   12.0110   
    87      opls_839      1         UNK        O14         1       -0.467562   15.9990   
    88      opls_800      1         UNK        C00         1       -0.214175   12.0110   
    89      opls_840      1         UNK        C15         1       -0.273063   12.0110   
    90      opls_802      1         UNK        C02         1       0.333657   12.0110   
    91      opls_803      1         UNK        S03         1       0.330618   32.0670   
    92      opls_887      1         UNK        H2H         1       0.169106    1.0080   
    93      opls_888      1         UNK        H2I         1       0.169228    1.0080   
    94      opls_889      1         UNK        H2J         1       0.187190    1.0080   
    95      opls_804      1         UNK        C04         1       -0.192345   12.0110   
    96      opls_805      1         UNK        O05         1       -0.467562   15.9990   
    97      opls_806      1         UNK        C06         1       -0.187519   12.0110   
    98      opls_890      1         UNK        H2K         1       0.164906    1.0080   
    99      opls_807      1         UNK        C07         1       -0.273063   12.0110   
   100      opls_808      1         UNK        C08         1       -0.170705   12.0110   
   101      opls_891      1         UNK        H2M         1       0.169106    1.0080   
   102      opls_892      1         UNK        H2N         1       0.169228    1.0080   
   103      opls_893      1         UNK        H2O         1       0.187190    1.0080   
   104      opls_809      1         UNK        C09         1       -0.149194   12.0110   
   105      opls_810      1         UNK        S0A         1       0.290780   32.0670   
   106      opls_811      1         UNK        C0B         1       -0.151429   12.0110   
   107      opls_894      1         UNK        H2P         1       0.164237    1.0080   
   108      opls_812      1         UNK        C0C         1       -0.168082   12.0110   
   109      opls_895      1         UNK        H2Q         1       0.163081    1.0080   
   110      opls_846      1         UNK        C1B         1       -0.168083   12.0110   
   111      opls_847      1         UNK        C1C         1       -0.151428   12.0110   
   112      opls_844      1         UNK        S19         1       0.290780   32.0670   
   113      opls_845      1         UNK        C1A         1       -0.149194   12.0110   
   114      opls_884      1         UNK        H2E         1       0.163081    1.0080   
   115      opls_843      1         UNK        C18         1       -0.170705   12.0110   
   116      opls_885      1         UNK        H2F         1       0.164237    1.0080   
   117      opls_841      1         UNK        C16         1       -0.187519   12.0110   
   118      opls_842      1         UNK        C17         1       -0.192345   12.0110   
   119      opls_837      1         UNK        S12         1       0.330618   32.0670   
   120      opls_838      1         UNK        C13         1       0.333657   12.0110   
   121      opls_886      1         UNK        H2G         1       0.164906    1.0080   
   122      opls_801      1         UNK        C01         1       -0.214175   12.0110   
   123      opls_839      1         UNK        O14         1       -0.467562   15.9990   
   124      opls_800      1         UNK        C00         1       -0.214175   12.0110   
   125      opls_840      1         UNK        C15         1       -0.273063   12.0110   
   126      opls_802      1         UNK        C02         1       0.333657   12.0110   
   127      opls_803      1         UNK        S03         1       0.330618   32.0670   
   128      opls_887      1         UNK        H2H         1       0.169106    1.0080   
   129      opls_888      1         UNK        H2I         1       0.169228    1.0080   
   130      opls_889      1         UNK        H2J         1       0.187190    1.0080   
   131      opls_804      1         UNK        C04         1       -0.192345   12.0110   
   132      opls_805      1         UNK        O05         1       -0.467562   15.9990   
   133      opls_806      1         UNK        C06         1       -0.187519   12.0110   
   134      opls_890      1         UNK        H2K         1       0.164906    1.0080   
   135      opls_807      1         UNK        C07         1       -0.273063   12.0110   
   136      opls_808      1         UNK        C08         1       -0.170705   12.0110   
   137      opls_891      1         UNK        H2M         1       0.169106    1.0080   
   138      opls_892      1         UNK        H2N         1       0.169228    1.0080   
   139      opls_893      1         UNK        H2O         1       0.187190    1.0080   
   140      opls_809      1         UNK        C09         1       -0.149194   12.0110   
   141      opls_810      1         UNK        S0A         1       0.290780   32.0670   
   142      opls_811      1         UNK        C0B         1       -0.151429   12.0110   
   143      opls_894      1         UNK        H2P         1       0.164237    1.0080   
   144      opls_812      1         UNK        C0C         1       -0.168082   12.0110   
   145      opls_895      1         UNK        H2Q         1       0.163081    1.0080   
   146      opls_870      1         UNK        C20         1       -0.364927   12.0110   
   147      opls_871      1         UNK        C21         1       -0.109687   12.0110   
   148      opls_868      1         UNK        S1Y         1       0.281702   32.0670   
   149      opls_869      1         UNK        C1Z         1       -0.136647   12.0110   
   150      opls_872      1         UNK        H22         1       0.152956    1.0080   
   151      opls_867      1         UNK        C1X         1       -0.188267   12.0110   
   152      opls_873      1         UNK        H23         1       0.161989    1.0080   
   153      opls_865      1         UNK        C1V         1       -0.178020   12.0110   
   154      opls_866      1         UNK        C1W         1       -0.190147   12.0110   
   155      opls_861      1         UNK        S1R         1       0.328690   32.0670   
   156      opls_862      1         UNK        C1S         1       0.332897   12.0110   
   157      opls_874      1         UNK        H24         1       0.163135    1.0080   
   158      opls_860      1         UNK        C1Q         1       -0.216402   12.0110   
   159      opls_863      1         UNK        O1T         1       -0.467352   15.9990   
   160      opls_856      1         UNK        C1M         1       -0.213307   12.0110   
   161      opls_864      1         UNK        C1U         1       -0.272655   12.0110   
   162      opls_857      1         UNK        C1N         1       0.332980   12.0110   
   163      opls_854      1         UNK        S1J         1       0.330003   32.0670   
   164      opls_875      1         UNK        H25         1       0.168506    1.0080   
   165      opls_876      1         UNK        H26         1       0.169110    1.0080   
   166      opls_877      1         UNK        H27         1       0.186748    1.0080   
   167      opls_855      1         UNK        C1K         1       -0.192208   12.0110   
   168      opls_858      1         UNK        O1O         1       -0.467556   15.9990   
   169      opls_853      1         UNK        C1I         1       -0.188106   12.0110   
   170      opls_878      1         UNK        H28         1       0.164546    1.0080   
   171      opls_859      1         UNK        C1P         1       -0.272784   12.0110   
   172      opls_851      1         UNK        C1G         1       -0.170432   12.0110   
   173      opls_879      1         UNK        H29         1       0.168712    1.0080   
   174      opls_880      1         UNK        H2A         1       0.168784    1.0080   
   175      opls_881      1         UNK        H2B         1       0.186878    1.0080   
   176      opls_852      1         UNK        C1H         1       -0.149320   12.0110   
   177      opls_849      1         UNK        S1E         1       0.290545   32.0670   
   178      opls_850      1         UNK        C1F         1       -0.151315   12.0110   
   179      opls_882      1         UNK        H2C         1       0.164169    1.0080   
   180      opls_848      1         UNK        C1D         1       -0.168435   12.0110   
   181      opls_883      1         UNK        H2D         1       0.162906    1.0080   
   182      opls_846      1         UNK        C1B         1       -0.168083   12.0110   
   183      opls_847      1         UNK        C1C         1       -0.151428   12.0110   
   184      opls_844      1         UNK        S19         1       0.290780   32.0670   
   185      opls_845      1         UNK        C1A         1       -0.149194   12.0110   
   186      opls_884      1         UNK        H2E         1       0.163081    1.0080   
   187      opls_843      1         UNK        C18         1       -0.170705   12.0110   
   188      opls_885      1         UNK        H2F         1       0.164237    1.0080   
   189      opls_841      1         UNK        C16         1       -0.187519   12.0110   
   190      opls_842      1         UNK        C17         1       -0.192345   12.0110   
   191      opls_837      1         UNK        S12         1       0.330618   32.0670   
   192      opls_838      1         UNK        C13         1       0.333657   12.0110   
   193      opls_886      1         UNK        H2G         1       0.164906    1.0080   
   194      opls_801      1         UNK        C01         1       -0.214175   12.0110   
   195      opls_839      1         UNK        O14         1       -0.467562   15.9990   
   196      opls_800      1         UNK        C00         1       -0.214175   12.0110   
   197      opls_840      1         UNK        C15         1       -0.273063   12.0110   
   198      opls_802      1         UNK        C02         1       0.333657   12.0110   
   199      opls_803      1         UNK        S03         1       0.330618   32.0670   
   200      opls_887      1         UNK        H2H         1       0.169106    1.0080   
   201      opls_888      1         UNK        H2I         1       0.169228    1.0080   
   202      opls_889      1         UNK        H2J         1       0.187190    1.0080   
   203      opls_804      1         UNK        C04         1       -0.192345   12.0110   
   204      opls_805      1         UNK        O05         1       -0.467562   15.9990   
   205      opls_806      1         UNK        C06         1       -0.187519   12.0110   
   206      opls_890      1         UNK        H2K         1       0.164906    1.0080   
   207      opls_807      1         UNK        C07         1       -0.273063   12.0110   
   208      opls_808      1         UNK        C08         1       -0.170705   12.0110   
   209      opls_891      1         UNK        H2M         1       0.169106    1.0080   
   210      opls_892      1         UNK        H2N         1       0.169228    1.0080   
   211      opls_893      1         UNK        H2O         1       0.187190    1.0080   
   212      opls_809      1         UNK        C09         1       -0.149194   12.0110   
   213      opls_810      1         UNK        S0A         1       0.290780   32.0670   
   214      opls_811      1         UNK        C0B         1       -0.151429   12.0110   
   215      opls_894      1         UNK        H2P         1       0.164237    1.0080   
   216      opls_812      1         UNK        C0C         1       -0.168082   12.0110   
   217      opls_895      1         UNK        H2Q         1       0.163081    1.0080   
   218      opls_9508      1         UNK        H33         1       0.183580    1.0080   
 
[ bonds ]
 13    15      1       0.1424    392459.200  
 17    15      1       0.1424    392459.200  
 18    15      1       0.1760    209200.000  
 22    17      1       0.1424    392459.200  
 23    17      1       0.1364    376560.000  
 24    22      1       0.1424    392459.200  
 26    23      1       0.1410    267776.000  
 27    24      1       0.1424    392459.200  
 31    27      1       0.1424    392459.200  
 32    27      1       0.1760    209200.000  
 33    31      1       0.1424    392459.200  
 35    33      1       0.1424    392459.200  
 37    35      1       0.1424    392459.200  
 38    37      1       0.1424    392459.200  
 39    37      1       0.1760    209200.000  
 40    38      1       0.1424    392459.200  
 42    40      1       0.1424    392459.200  
 44    42      1       0.1424    392459.200  
 45    44      1       0.1424    392459.200  
 46    44      1       0.1760    209200.000  
 47    45      1       0.1424    392459.200  
 49    47      1       0.1424    392459.200  
 50    47      1       0.1364    376560.000  
 51    49      1       0.1424    392459.200  
 52    50      1       0.1410    267776.000  
 53    51      1       0.1424    392459.200  
 54    51      1       0.1760    209200.000  
 58    53      1       0.1424    392459.200  
 59    53      1       0.1364    376560.000  
 60    58      1       0.1424    392459.200  
 62    59      1       0.1410    267776.000  
 63    60      1       0.1424    392459.200  
 67    63      1       0.1424    392459.200  
 68    63      1       0.1760    209200.000  
 69    67      1       0.1424    392459.200  
 71    68      1       0.1740    209200.000  
 10    13      1       0.1760    209200.000  
 11    13      1       0.1424    392459.200  
 14    11      1       0.1364    376560.000  
 16    14      1       0.1410    267776.000  
 8    10       1       0.1760    209200.000  
  9    8       1       0.1424    392459.200  
  6    8       1       0.1424    392459.200  
  3    6       1       0.1760    209200.000  
  4    6       1       0.1424    392459.200  
  1    3       1       0.1760    209200.000  
  2    1       1       0.1424    392459.200  
 108    1      1       0.1424    392459.200  
  5    2       1       0.1080    307105.600  
  7    4       1       0.1080    307105.600  
 12    9       1       0.1080    307105.600  
 19    16      1       0.1090    284512.000  
 20    16      1       0.1090    284512.000  
 21    16      1       0.1090    284512.000  
 25    22      1       0.1080    307105.600  
 28    26      1       0.1090    284512.000  
 29    26      1       0.1090    284512.000  
 30    26      1       0.1090    284512.000  
 34    31      1       0.1080    307105.600  
 36    33      1       0.1080    307105.600  
 41    38      1       0.1080    307105.600  
 43    40      1       0.1080    307105.600  
 48    45      1       0.1080    307105.600  
 55    52      1       0.1090    284512.000  
 56    52      1       0.1090    284512.000  
 57    52      1       0.1090    284512.000  
 61    58      1       0.1080    307105.600  
 64    62      1       0.1090    284512.000  
 65    62      1       0.1090    284512.000  
 66    62      1       0.1090    284512.000  
 70    67      1       0.1080    307105.600  
 72    69      1       0.1080    307105.600  
 73    71      1       0.1080    307105.600  
 24    18      1       0.1760    209200.000  
 35    32      1       0.1760    209200.000  
 42    39      1       0.1760    209200.000  
 49    46      1       0.1760    209200.000  
 60    54      1       0.1760    209200.000  
 71    69      1       0.1380    456892.800  
 9    11       1       0.1424    392459.200  
  2    4       1       0.1424    392459.200  
 86    88      1       0.1424    392459.200  
 90    88      1       0.1424    392459.200  
 91    88      1       0.1760    209200.000  
 95    90      1       0.1424    392459.200  
 96    90      1       0.1364    376560.000  
 97    95      1       0.1424    392459.200  
 99    96      1       0.1410    267776.000  
 100    97      1       0.1424    392459.200  
 104    100      1       0.1424    392459.200  
 105    100      1       0.1760    209200.000  
 106    104      1       0.1424    392459.200  
 108    106      1       0.1424    392459.200  
 83    86      1       0.1760    209200.000  
 84    86      1       0.1424    392459.200  
 87    84      1       0.1364    376560.000  
 89    87      1       0.1410    267776.000  
 81    83      1       0.1760    209200.000  
 82    81      1       0.1424    392459.200  
 79    81      1       0.1424    392459.200  
 76    79      1       0.1760    209200.000  
 77    79      1       0.1424    392459.200  
 74    76      1       0.1760    209200.000  
 75    74      1       0.1424    392459.200  
 144    74      1       0.1424    392459.200  
 78    75      1       0.1080    307105.600  
 80    77      1       0.1080    307105.600  
 85    82      1       0.1080    307105.600  
 92    89      1       0.1090    284512.000  
 93    89      1       0.1090    284512.000  
 94    89      1       0.1090    284512.000  
 98    95      1       0.1080    307105.600  
 101    99      1       0.1090    284512.000  
 102    99      1       0.1090    284512.000  
 103    99      1       0.1090    284512.000  
 107    104      1       0.1080    307105.600  
 109    106      1       0.1080    307105.600  
 97    91      1       0.1760    209200.000  
 108    105      1       0.1760    209200.000  
 82    84      1       0.1424    392459.200  
 75    77      1       0.1424    392459.200  
 122    124      1       0.1424    392459.200  
 126    124      1       0.1424    392459.200  
 127    124      1       0.1760    209200.000  
 131    126      1       0.1424    392459.200  
 132    126      1       0.1364    376560.000  
 133    131      1       0.1424    392459.200  
 135    132      1       0.1410    267776.000  
 136    133      1       0.1424    392459.200  
 140    136      1       0.1424    392459.200  
 141    136      1       0.1760    209200.000  
 142    140      1       0.1424    392459.200  
 144    142      1       0.1424    392459.200  
 119    122      1       0.1760    209200.000  
 120    122      1       0.1424    392459.200  
 123    120      1       0.1364    376560.000  
 125    123      1       0.1410    267776.000  
 117    119      1       0.1760    209200.000  
 118    117      1       0.1424    392459.200  
 115    117      1       0.1424    392459.200  
 112    115      1       0.1760    209200.000  
 113    115      1       0.1424    392459.200  
 110    112      1       0.1760    209200.000  
 111    110      1       0.1424    392459.200  
 216    110      1       0.1424    392459.200  
 114    111      1       0.1080    307105.600  
 116    113      1       0.1080    307105.600  
 121    118      1       0.1080    307105.600  
 128    125      1       0.1090    284512.000  
 129    125      1       0.1090    284512.000  
 130    125      1       0.1090    284512.000  
 134    131      1       0.1080    307105.600  
 137    135      1       0.1090    284512.000  
 138    135      1       0.1090    284512.000  
 139    135      1       0.1090    284512.000  
 143    140      1       0.1080    307105.600  
 145    142      1       0.1080    307105.600  
 133    127      1       0.1760    209200.000  
 144    141      1       0.1760    209200.000  
 118    120      1       0.1424    392459.200  
 111    113      1       0.1424    392459.200  
 194    196      1       0.1424    392459.200  
 198    196      1       0.1424    392459.200  
 199    196      1       0.1760    209200.000  
 203    198      1       0.1424    392459.200  
 204    198      1       0.1364    376560.000  
 205    203      1       0.1424    392459.200  
 207    204      1       0.1410    267776.000  
 208    205      1       0.1424    392459.200  
 212    208      1       0.1424    392459.200  
 213    208      1       0.1760    209200.000  
 214    212      1       0.1424    392459.200  
 216    214      1       0.1424    392459.200  
 191    194      1       0.1760    209200.000  
 192    194      1       0.1424    392459.200  
 195    192      1       0.1364    376560.000  
 197    195      1       0.1410    267776.000  
 189    191      1       0.1760    209200.000  
 190    189      1       0.1424    392459.200  
 187    189      1       0.1424    392459.200  
 184    187      1       0.1760    209200.000  
 185    187      1       0.1424    392459.200  
 182    184      1       0.1760    209200.000  
 183    182      1       0.1424    392459.200  
 180    182      1       0.1424    392459.200  
 177    180      1       0.1760    209200.000  
 178    180      1       0.1424    392459.200  
 172    177      1       0.1760    209200.000  
 176    172      1       0.1424    392459.200  
 169    172      1       0.1424    392459.200  
 163    169      1       0.1760    209200.000  
 167    169      1       0.1424    392459.200  
 160    163      1       0.1760    209200.000  
 162    160      1       0.1424    392459.200  
 168    162      1       0.1364    376560.000  
 171    168      1       0.1410    267776.000  
 158    160      1       0.1424    392459.200  
 155    158      1       0.1760    209200.000  
 156    158      1       0.1424    392459.200  
 159    156      1       0.1364    376560.000  
 161    159      1       0.1410    267776.000  
 153    155      1       0.1760    209200.000  
 154    153      1       0.1424    392459.200  
 151    153      1       0.1424    392459.200  
 148    151      1       0.1760    209200.000  
 149    151      1       0.1424    392459.200  
 146    148      1       0.1740    209200.000  
 147    146      1       0.1380    456892.800  
 150    147      1       0.1080    307105.600  
 152    149      1       0.1080    307105.600  
 157    154      1       0.1080    307105.600  
 164    161      1       0.1090    284512.000  
 165    161      1       0.1090    284512.000  
 166    161      1       0.1090    284512.000  
 170    167      1       0.1080    307105.600  
 173    171      1       0.1090    284512.000  
 174    171      1       0.1090    284512.000  
 175    171      1       0.1090    284512.000  
 179    176      1       0.1080    307105.600  
 181    178      1       0.1080    307105.600  
 186    183      1       0.1080    307105.600  
 188    185      1       0.1080    307105.600  
 193    190      1       0.1080    307105.600  
 200    197      1       0.1090    284512.000  
 201    197      1       0.1090    284512.000  
 202    197      1       0.1090    284512.000  
 206    203      1       0.1080    307105.600  
 209    207      1       0.1090    284512.000  
 210    207      1       0.1090    284512.000  
 211    207      1       0.1090    284512.000  
 215    212      1       0.1080    307105.600  
 217    214      1       0.1080    307105.600  
 218    146      1       0.1080    307105.600  
 205    199      1       0.1760    209200.000  
 216    213      1       0.1760    209200.000  
 190    192      1       0.1424    392459.200  
 183    185      1       0.1424    392459.200  
 176    178      1       0.1424    392459.200  
 162    167      1       0.1424    392459.200  
 154    156      1       0.1424    392459.200  
 147    149      1       0.1424    392459.200  
 
[ angles ]
 17    15    13      1       120.000    527.184  
 18    15    13      1       119.400    711.280  
 22    17    15      1       120.000    527.184  
 23    17    15      1       120.000    585.760  
 24    22    17      1       120.000    527.184  
 26    23    17      1       111.000    627.600  
 27    24    22      1       120.000    527.184  
 31    27    24      1       120.000    527.184  
 32    27    24      1       119.400    711.280  
 33    31    27      1       120.000    527.184  
 35    33    31      1       120.000    527.184  
 37    35    33      1       120.000    527.184  
 38    37    35      1       120.000    527.184  
 39    37    35      1       119.400    711.280  
 40    38    37      1       120.000    527.184  
 42    40    38      1       120.000    527.184  
 44    42    40      1       120.000    527.184  
 45    44    42      1       120.000    527.184  
 46    44    42      1       119.400    711.280  
 47    45    44      1       120.000    527.184  
 49    47    45      1       120.000    527.184  
 50    47    45      1       120.000    585.760  
 51    49    47      1       120.000    527.184  
 52    50    47      1       111.000    627.600  
 53    51    49      1       120.000    527.184  
 54    51    49      1       119.400    711.280  
 58    53    51      1       120.000    527.184  
 59    53    51      1       120.000    585.760  
 60    58    53      1       120.000    527.184  
 62    59    53      1       111.000    627.600  
 63    60    58      1       120.000    527.184  
 67    63    60      1       120.000    527.184  
 68    63    60      1       119.400    711.280  
 69    67    63      1       120.000    527.184  
 71    68    63      1       106.390    829.185  
 10    13    15      1       119.400    711.280  
 11    13    15      1       120.000    527.184  
 14    11    13      1       120.000    585.760  
 16    14    11      1       111.000    627.600  
 8    10    13      1       106.390    829.185  
 9    8    10      1       119.400    711.280  
 6    8    10      1       119.400    711.280  
 3    6    8      1       119.400    711.280  
 4    6    8      1       120.000    527.184  
 1    3    6      1       106.390    829.185  
 2    1    3      1       119.400    711.280  
 108    1    3      1       119.400    711.280  
 105    108    1      1       119.400    711.280  
 106    108    1      1       120.000    527.184  
 5    2    1      1       127.500    292.880  
 7    4    6      1       127.500    292.880  
 12    9    8      1       127.500    292.880  
 19    16    14      1       109.500    292.880  
 20    16    14      1       109.500    292.880  
 21    16    14      1       109.500    292.880  
 25    22    17      1       127.500    292.880  
 28    26    23      1       109.500    292.880  
 29    26    23      1       109.500    292.880  
 30    26    23      1       109.500    292.880  
 34    31    27      1       127.500    292.880  
 36    33    31      1       127.500    292.880  
 41    38    37      1       127.500    292.880  
 43    40    38      1       127.500    292.880  
 48    45    44      1       127.500    292.880  
 55    52    50      1       109.500    292.880  
 56    52    50      1       109.500    292.880  
 57    52    50      1       109.500    292.880  
 61    58    53      1       127.500    292.880  
 64    62    59      1       109.500    292.880  
 65    62    59      1       109.500    292.880  
 66    62    59      1       109.500    292.880  
 70    67    63      1       127.500    292.880  
 72    69    67      1       127.500    292.880  
 73    71    68      1       120.000    292.880  
 18    15    17      1       119.400    711.280  
 23    17    22      1       120.000    585.760  
 25    22    24      1       127.500    292.880  
 15    18    24      1       106.390    829.185  
 18    24    27      1       119.400    711.280  
 32    27    31      1       119.400    711.280  
 34    31    33      1       127.500    292.880  
 36    33    35      1       127.500    292.880  
 27    32    35      1       106.390    829.185  
 32    35    37      1       119.400    711.280  
 39    37    38      1       119.400    711.280  
 41    38    40      1       127.500    292.880  
 43    40    42      1       127.500    292.880  
 37    39    42      1       106.390    829.185  
 39    42    44      1       119.400    711.280  
 46    44    45      1       119.400    711.280  
 48    45    47      1       127.500    292.880  
 50    47    49      1       120.000    585.760  
 44    46    49      1       106.390    829.185  
 46    49    51      1       119.400    711.280  
 54    51    53      1       119.400    711.280  
 59    53    58      1       120.000    585.760  
 61    58    60      1       127.500    292.880  
 51    54    60      1       106.390    829.185  
 54    60    63      1       119.400    711.280  
 68    63    67      1       119.400    711.280  
 70    67    69      1       127.500    292.880  
 67    69    71      1       112.300    585.760  
 72    69    71      1       123.100    292.880  
 11    13    10      1       119.400    711.280  
 9    11    14      1       120.000    585.760  
 6    8    9      1       120.000    527.184  
 13    11    9      1       120.000    527.184  
 4    6    3      1       119.400    711.280  
 108    1    2      1       120.000    527.184  
 6    4    2      1       120.000    527.184  
 7    4    2      1       127.500    292.880  
 4    2    5      1       127.500    292.880  
 11    9    12      1       127.500    292.880  
 20    16    19      1       107.800    276.144  
 21    16    19      1       107.800    276.144  
 21    16    20      1       107.800    276.144  
 29    26    28      1       107.800    276.144  
 30    26    28      1       107.800    276.144  
 30    26    29      1       107.800    276.144  
 56    52    55      1       107.800    276.144  
 57    52    55      1       107.800    276.144  
 57    52    56      1       107.800    276.144  
 65    62    64      1       107.800    276.144  
 66    62    64      1       107.800    276.144  
 66    62    65      1       107.800    276.144  
 69    71    73      1       128.200    292.880  
 22    24    18      1       119.400    711.280  
 33    35    32      1       119.400    711.280  
 40    42    39      1       119.400    711.280  
 47    49    46      1       119.400    711.280  
 58    60    54      1       119.400    711.280  
 68    71    69      1       111.000    585.760  
 8    9    11      1       120.000    527.184  
 1    2    4      1       120.000    527.184  
 90    88    86      1       120.000    527.184  
 91    88    86      1       119.400    711.280  
 95    90    88      1       120.000    527.184  
 96    90    88      1       120.000    585.760  
 97    95    90      1       120.000    527.184  
 99    96    90      1       111.000    627.600  
 100    97    95      1       120.000    527.184  
 104    100    97      1       120.000    527.184  
 105    100    97      1       119.400    711.280  
 106    104    100      1       120.000    527.184  
 108    106    104      1       120.000    527.184  
 83    86    88      1       119.400    711.280  
 84    86    88      1       120.000    527.184  
 87    84    86      1       120.000    585.760  
 89    87    84      1       111.000    627.600  
 81    83    86      1       106.390    829.185  
 82    81    83      1       119.400    711.280  
 79    81    83      1       119.400    711.280  
 76    79    81      1       119.400    711.280  
 77    79    81      1       120.000    527.184  
 74    76    79      1       106.390    829.185  
 75    74    76      1       119.400    711.280  
 144    74    76      1       119.400    711.280  
 141    144    74      1       119.400    711.280  
 142    144    74      1       120.000    527.184  
 78    75    74      1       127.500    292.880  
 80    77    79      1       127.500    292.880  
 85    82    81      1       127.500    292.880  
 92    89    87      1       109.500    292.880  
 93    89    87      1       109.500    292.880  
 94    89    87      1       109.500    292.880  
 98    95    90      1       127.500    292.880  
 101    99    96      1       109.500    292.880  
 102    99    96      1       109.500    292.880  
 103    99    96      1       109.500    292.880  
 107    104    100      1       127.500    292.880  
 109    106    104      1       127.500    292.880  
 91    88    90      1       119.400    711.280  
 96    90    95      1       120.000    585.760  
 98    95    97      1       127.500    292.880  
 88    91    97      1       106.390    829.185  
 91    97    100      1       119.400    711.280  
 105    100    104      1       119.400    711.280  
 107    104    106      1       127.500    292.880  
 109    106    108      1       127.500    292.880  
 100    105    108      1       106.390    829.185  
 84    86    83      1       119.400    711.280  
 82    84    87      1       120.000    585.760  
 79    81    82      1       120.000    527.184  
 86    84    82      1       120.000    527.184  
 77    79    76      1       119.400    711.280  
 144    74    75      1       120.000    527.184  
 79    77    75      1       120.000    527.184  
 80    77    75      1       127.500    292.880  
 77    75    78      1       127.500    292.880  
 84    82    85      1       127.500    292.880  
 93    89    92      1       107.800    276.144  
 94    89    92      1       107.800    276.144  
 94    89    93      1       107.800    276.144  
 102    99    101      1       107.800    276.144  
 103    99    101      1       107.800    276.144  
 103    99    102      1       107.800    276.144  
 95    97    91      1       119.400    711.280  
 106    108    105      1       119.400    711.280  
 81    82    84      1       120.000    527.184  
 74    75    77      1       120.000    527.184  
 126    124    122      1       120.000    527.184  
 127    124    122      1       119.400    711.280  
 131    126    124      1       120.000    527.184  
 132    126    124      1       120.000    585.760  
 133    131    126      1       120.000    527.184  
 135    132    126      1       111.000    627.600  
 136    133    131      1       120.000    527.184  
 140    136    133      1       120.000    527.184  
 141    136    133      1       119.400    711.280  
 142    140    136      1       120.000    527.184  
 144    142    140      1       120.000    527.184  
 119    122    124      1       119.400    711.280  
 120    122    124      1       120.000    527.184  
 123    120    122      1       120.000    585.760  
 125    123    120      1       111.000    627.600  
 117    119    122      1       106.390    829.185  
 118    117    119      1       119.400    711.280  
 115    117    119      1       119.400    711.280  
 112    115    117      1       119.400    711.280  
 113    115    117      1       120.000    527.184  
 110    112    115      1       106.390    829.185  
 111    110    112      1       119.400    711.280  
 216    110    112      1       119.400    711.280  
 213    216    110      1       119.400    711.280  
 214    216    110      1       120.000    527.184  
 114    111    110      1       127.500    292.880  
 116    113    115      1       127.500    292.880  
 121    118    117      1       127.500    292.880  
 128    125    123      1       109.500    292.880  
 129    125    123      1       109.500    292.880  
 130    125    123      1       109.500    292.880  
 134    131    126      1       127.500    292.880  
 137    135    132      1       109.500    292.880  
 138    135    132      1       109.500    292.880  
 139    135    132      1       109.500    292.880  
 143    140    136      1       127.500    292.880  
 145    142    140      1       127.500    292.880  
 127    124    126      1       119.400    711.280  
 132    126    131      1       120.000    585.760  
 134    131    133      1       127.500    292.880  
 124    127    133      1       106.390    829.185  
 127    133    136      1       119.400    711.280  
 141    136    140      1       119.400    711.280  
 143    140    142      1       127.500    292.880  
 145    142    144      1       127.500    292.880  
 136    141    144      1       106.390    829.185  
 120    122    119      1       119.400    711.280  
 118    120    123      1       120.000    585.760  
 115    117    118      1       120.000    527.184  
 122    120    118      1       120.000    527.184  
 113    115    112      1       119.400    711.280  
 216    110    111      1       120.000    527.184  
 115    113    111      1       120.000    527.184  
 116    113    111      1       127.500    292.880  
 113    111    114      1       127.500    292.880  
 120    118    121      1       127.500    292.880  
 129    125    128      1       107.800    276.144  
 130    125    128      1       107.800    276.144  
 130    125    129      1       107.800    276.144  
 138    135    137      1       107.800    276.144  
 139    135    137      1       107.800    276.144  
 139    135    138      1       107.800    276.144  
 131    133    127      1       119.400    711.280  
 142    144    141      1       119.400    711.280  
 117    118    120      1       120.000    527.184  
 110    111    113      1       120.000    527.184  
 198    196    194      1       120.000    527.184  
 199    196    194      1       119.400    711.280  
 203    198    196      1       120.000    527.184  
 204    198    196      1       120.000    585.760  
 205    203    198      1       120.000    527.184  
 207    204    198      1       111.000    627.600  
 208    205    203      1       120.000    527.184  
 212    208    205      1       120.000    527.184  
 213    208    205      1       119.400    711.280  
 214    212    208      1       120.000    527.184  
 216    214    212      1       120.000    527.184  
 191    194    196      1       119.400    711.280  
 192    194    196      1       120.000    527.184  
 195    192    194      1       120.000    585.760  
 197    195    192      1       111.000    627.600  
 189    191    194      1       106.390    829.185  
 190    189    191      1       119.400    711.280  
 187    189    191      1       119.400    711.280  
 184    187    189      1       119.400    711.280  
 185    187    189      1       120.000    527.184  
 182    184    187      1       106.390    829.185  
 183    182    184      1       119.400    711.280  
 180    182    184      1       119.400    711.280  
 177    180    182      1       119.400    711.280  
 178    180    182      1       120.000    527.184  
 172    177    180      1       106.390    829.185  
 176    172    177      1       119.400    711.280  
 169    172    177      1       119.400    711.280  
 163    169    172      1       119.400    711.280  
 167    169    172      1       120.000    527.184  
 160    163    169      1       106.390    829.185  
 162    160    163      1       119.400    711.280  
 168    162    160      1       120.000    585.760  
 171    168    162      1       111.000    627.600  
 158    160    163      1       119.400    711.280  
 155    158    160      1       119.400    711.280  
 156    158    160      1       120.000    527.184  
 159    156    158      1       120.000    585.760  
 161    159    156      1       111.000    627.600  
 153    155    158      1       106.390    829.185  
 154    153    155      1       119.400    711.280  
 151    153    155      1       119.400    711.280  
 148    151    153      1       119.400    711.280  
 149    151    153      1       120.000    527.184  
 146    148    151      1       106.390    829.185  
 147    146    148      1       111.000    585.760  
 150    147    146      1       123.100    292.880  
 152    149    151      1       127.500    292.880  
 157    154    153      1       127.500    292.880  
 164    161    159      1       109.500    292.880  
 165    161    159      1       109.500    292.880  
 166    161    159      1       109.500    292.880  
 170    167    169      1       127.500    292.880  
 173    171    168      1       109.500    292.880  
 174    171    168      1       109.500    292.880  
 175    171    168      1       109.500    292.880  
 179    176    172      1       127.500    292.880  
 181    178    180      1       127.500    292.880  
 186    183    182      1       127.500    292.880  
 188    185    187      1       127.500    292.880  
 193    190    189      1       127.500    292.880  
 200    197    195      1       109.500    292.880  
 201    197    195      1       109.500    292.880  
 202    197    195      1       109.500    292.880  
 206    203    198      1       127.500    292.880  
 209    207    204      1       109.500    292.880  
 210    207    204      1       109.500    292.880  
 211    207    204      1       109.500    292.880  
 215    212    208      1       127.500    292.880  
 217    214    212      1       127.500    292.880  
 218    146    148      1       120.000    292.880  
 199    196    198      1       119.400    711.280  
 204    198    203      1       120.000    585.760  
 206    203    205      1       127.500    292.880  
 196    199    205      1       106.390    829.185  
 199    205    208      1       119.400    711.280  
 213    208    212      1       119.400    711.280  
 215    212    214      1       127.500    292.880  
 217    214    216      1       127.500    292.880  
 208    213    216      1       106.390    829.185  
 192    194    191      1       119.400    711.280  
 190    192    195      1       120.000    585.760  
 187    189    190      1       120.000    527.184  
 194    192    190      1       120.000    527.184  
 185    187    184      1       119.400    711.280  
 180    182    183      1       120.000    527.184  
 187    185    183      1       120.000    527.184  
 188    185    183      1       127.500    292.880  
 178    180    177      1       119.400    711.280  
 169    172    176      1       120.000    527.184  
 180    178    176      1       120.000    527.184  
 181    178    176      1       127.500    292.880  
 167    169    163      1       119.400    711.280  
 158    160    162      1       120.000    527.184  
 169    167    162      1       120.000    527.184  
 170    167    162      1       127.500    292.880  
 167    162    168      1       120.000    585.760  
 156    158    155      1       119.400    711.280  
 154    156    159      1       120.000    585.760  
 151    153    154      1       120.000    527.184  
 158    156    154      1       120.000    527.184  
 149    151    148      1       119.400    711.280  
 218    146    147      1       128.200    292.880  
 151    149    147      1       120.000    527.184  
 152    149    147      1       127.500    292.880  
 149    147    150      1       127.500    292.880  
 156    154    157      1       127.500    292.880  
 165    161    164      1       107.800    276.144  
 166    161    164      1       107.800    276.144  
 166    161    165      1       107.800    276.144  
 174    171    173      1       107.800    276.144  
 175    171    173      1       107.800    276.144  
 175    171    174      1       107.800    276.144  
 178    176    179      1       127.500    292.880  
 185    183    186      1       127.500    292.880  
 192    190    193      1       127.500    292.880  
 201    197    200      1       107.800    276.144  
 202    197    200      1       107.800    276.144  
 202    197    201      1       107.800    276.144  
 210    207    209      1       107.800    276.144  
 211    207    209      1       107.800    276.144  
 211    207    210      1       107.800    276.144  
 203    205    199      1       119.400    711.280  
 214    216    213      1       119.400    711.280  
 189    190    192      1       120.000    527.184  
 182    183    185      1       120.000    527.184  
 172    176    178      1       120.000    527.184  
 160    162    167      1       120.000    527.184  
 153    154    156      1       120.000    527.184  
 146    147    149      1       112.300    585.760  
 
[ dihedrals ]
 22    17    15    13      3       30.334    0.000    -30.334    -0.000    -0.000    0.000  
 23    17    15    13      3       9.079    0.000    -9.079    -0.000    -0.000    0.000  
 24    22    17    15      3       30.334    0.000    -30.334    -0.000    -0.000    0.000  
 26    23    17    15      3       14.100    0.000    -9.079    -0.000    -5.021    0.000  
 27    24    22    17      3       30.334    0.000    -30.334    -0.000    -0.000    0.000  
 31    27    24    22      3       30.334    0.000    -30.334    -0.000    -0.000    0.000  
 32    27    24    22      3       30.334    0.000    -30.334    -0.000    -0.000    0.000  
 33    31    27    24      3       30.334    0.000    -30.334    -0.000    -0.000    0.000  
 35    33    31    27      3       30.334    0.000    -30.334    -0.000    -0.000    0.000  
 37    35    33    31      3       30.334    0.000    -30.334    -0.000    -0.000    0.000  
 38    37    35    33      3       30.334    0.000    -30.334    -0.000    -0.000    0.000  
 39    37    35    33      3       30.334    0.000    -30.334    -0.000    -0.000    0.000  
 40    38    37    35      3       30.334    0.000    -30.334    -0.000    -0.000    0.000  
 42    40    38    37      3       30.334    0.000    -30.334    -0.000    -0.000    0.000  
 44    42    40    38      3       30.334    0.000    -30.334    -0.000    -0.000    0.000  
 45    44    42    40      3       30.334    0.000    -30.334    -0.000    -0.000    0.000  
 46    44    42    40      3       30.334    0.000    -30.334    -0.000    -0.000    0.000  
 47    45    44    42      3       30.334    0.000    -30.334    -0.000    -0.000    0.000  
 49    47    45    44      3       30.334    0.000    -30.334    -0.000    -0.000    0.000  
 50    47    45    44      3       9.079    0.000    -9.079    -0.000    -0.000    0.000  
 51    49    47    45      3       30.334    0.000    -30.334    -0.000    -0.000    0.000  
 52    50    47    45      3       14.100    0.000    -9.079    -0.000    -5.021    0.000  
 53    51    49    47      3       30.334    0.000    -30.334    -0.000    -0.000    0.000  
 54    51    49    47      3       30.334    0.000    -30.334    -0.000    -0.000    0.000  
 58    53    51    49      3       30.334    0.000    -30.334    -0.000    -0.000    0.000  
 59    53    51    49      3       9.079    0.000    -9.079    -0.000    -0.000    0.000  
 60    58    53    51      3       30.334    0.000    -30.334    -0.000    -0.000    0.000  
 62    59    53    51      3       14.100    0.000    -9.079    -0.000    -5.021    0.000  
 63    60    58    53      3       30.334    0.000    -30.334    -0.000    -0.000    0.000  
 67    63    60    58      3       30.334    0.000    -30.334    -0.000    -0.000    0.000  
 68    63    60    58      3       30.334    0.000    -30.334    -0.000    -0.000    0.000  
 69    67    63    60      3       30.334    0.000    -30.334    -0.000    -0.000    0.000  
 71    68    63    60      3       30.334    0.000    -30.334    -0.000    -0.000    0.000  
 10    13    15    17      3       0.000    0.000    0.000    0.000    0.000    0.000  
 11    13    15    17      3       0.000    0.000    0.000    0.000    0.000    0.000  
 14    11    13    15      3       9.079    0.000    -9.079    -0.000    -0.000    0.000  
 16    14    11    13      3       14.100    0.000    -9.079    -0.000    -5.021    0.000  
 8    10    13    15      3       30.334    0.000    -30.334    -0.000    -0.000    0.000  
 9    8    10    13      3       30.334    0.000    -30.334    -0.000    -0.000    0.000  
 6    8    10    13      3       30.334    0.000    -30.334    -0.000    -0.000    0.000  
 3    6    8    10      3       30.334    0.000    -30.334    -0.000    -0.000    0.000  
 4    6    8    10      3       30.334    0.000    -30.334    -0.000    -0.000    0.000  
 1    3    6    8      3       30.334    0.000    -30.334    -0.000    -0.000    0.000  
 2    1    3    6      3       30.334    0.000    -30.334    -0.000    -0.000    0.000  
 108    1    3    6      3       30.334    0.000    -30.334    -0.000    -0.000    0.000  
 105    108    1    3      3       30.334    0.000    -30.334    -0.000    -0.000    0.000  
 106    108    1    3      3       30.334    0.000    -30.334    -0.000    -0.000    0.000  
 100    105    108    1      3       30.334    0.000    -30.334    -0.000    -0.000    0.000  
 109    106    108    1      3       30.334    0.000    -30.334    -0.000    -0.000    0.000  
 5    2    1    3      3       30.334    0.000    -30.334    -0.000    -0.000    0.000  
 7    4    6    8      3       30.334    0.000    -30.334    -0.000    -0.000    0.000  
 12    9    8    10      3       30.334    0.000    -30.334    -0.000    -0.000    0.000  
 19    16    14    11      3       1.590    4.770    0.000    -6.360    -0.000    0.000  
 20    16    14    11      3       1.590    4.770    0.000    -6.360    -0.000    0.000  
 21    16    14    11      3       1.590    4.770    0.000    -6.360    -0.000    0.000  
 25    22    17    15      3       30.334    0.000    -30.334    -0.000    -0.000    0.000  
 28    26    23    17      3       1.590    4.770    0.000    -6.360    -0.000    0.000  
 29    26    23    17      3       1.590    4.770    0.000    -6.360    -0.000    0.000  
 30    26    23    17      3       1.590    4.770    0.000    -6.360    -0.000    0.000  
 34    31    27    24      3       30.334    0.000    -30.334    -0.000    -0.000    0.000  
 36    33    31    27      3       30.334    0.000    -30.334    -0.000    -0.000    0.000  
 41    38    37    35      3       30.334    0.000    -30.334    -0.000    -0.000    0.000  
 43    40    38    37      3       30.334    0.000    -30.334    -0.000    -0.000    0.000  
 48    45    44    42      3       30.334    0.000    -30.334    -0.000    -0.000    0.000  
 55    52    50    47      3       1.590    4.770    0.000    -6.360    -0.000    0.000  
 56    52    50    47      3       1.590    4.770    0.000    -6.360    -0.000    0.000  
 57    52    50    47      3       1.590    4.770    0.000    -6.360    -0.000    0.000  
 61    58    53    51      3       30.334    0.000    -30.334    -0.000    -0.000    0.000  
 64    62    59    53      3       1.590    4.770    0.000    -6.360    -0.000    0.000  
 65    62    59    53      3       1.590    4.770    0.000    -6.360    -0.000    0.000  
 66    62    59    53      3       1.590    4.770    0.000    -6.360    -0.000    0.000  
 70    67    63    60      3       30.334    0.000    -30.334    -0.000    -0.000    0.000  
 72    69    67    63      3       30.334    0.000    -30.334    -0.000    -0.000    0.000  
 73    71    68    63      3       30.334    0.000    -30.334    -0.000    -0.000    0.000  
 24    18    15    13      3       30.334    0.000    -30.334    -0.000    -0.000    0.000  
 24    18    15    17      3       30.334    0.000    -30.334    -0.000    -0.000    0.000  
 10    13    15    18      3       0.000    0.000    0.000    0.000    0.000    0.000  
 11    13    15    18      3       0.000    0.000    0.000    0.000    0.000    0.000  
 22    17    15    18      3       30.334    0.000    -30.334    -0.000    -0.000    0.000  
 23    17    15    18      3       9.079    0.000    -9.079    -0.000    -0.000    0.000  
 26    23    17    22      3       14.100    0.000    -9.079    -0.000    -5.021    0.000  
 24    22    17    23      3       9.079    0.000    -9.079    -0.000    -0.000    0.000  
 25    22    17    23      3       9.079    0.000    -9.079    -0.000    -0.000    0.000  
 25    22    24    27      3       30.334    0.000    -30.334    -0.000    -0.000    0.000  
 15    18    24    27      3       30.334    0.000    -30.334    -0.000    -0.000    0.000  
 18    24    27    31      3       30.334    0.000    -30.334    -0.000    -0.000    0.000  
 35    32    27    31      3       30.334    0.000    -30.334    -0.000    -0.000    0.000  
 18    24    27    32      3       30.334    0.000    -30.334    -0.000    -0.000    0.000  
 33    31    27    32      3       30.334    0.000    -30.334    -0.000    -0.000    0.000  
 34    31    27    32      3       30.334    0.000    -30.334    -0.000    -0.000    0.000  
 34    31    33    35      3       30.334    0.000    -30.334    -0.000    -0.000    0.000  
 24    27    32    35      3       30.334    0.000    -30.334    -0.000    -0.000    0.000  
 36    33    35    37      3       30.334    0.000    -30.334    -0.000    -0.000    0.000  
 27    32    35    37      3       30.334    0.000    -30.334    -0.000    -0.000    0.000  
 32    35    37    38      3       30.334    0.000    -30.334    -0.000    -0.000    0.000  
 42    39    37    38      3       30.334    0.000    -30.334    -0.000    -0.000    0.000  
 32    35    37    39      3       30.334    0.000    -30.334    -0.000    -0.000    0.000  
 40    38    37    39      3       30.334    0.000    -30.334    -0.000    -0.000    0.000  
 41    38    37    39      3       30.334    0.000    -30.334    -0.000    -0.000    0.000  
 41    38    40    42      3       30.334    0.000    -30.334    -0.000    -0.000    0.000  
 35    37    39    42      3       30.334    0.000    -30.334    -0.000    -0.000    0.000  
 43    40    42    44      3       30.334    0.000    -30.334    -0.000    -0.000    0.000  
 37    39    42    44      3       30.334    0.000    -30.334    -0.000    -0.000    0.000  
 39    42    44    45      3       30.334    0.000    -30.334    -0.000    -0.000    0.000  
 49    46    44    45      3       30.334    0.000    -30.334    -0.000    -0.000    0.000  
 39    42    44    46      3       30.334    0.000    -30.334    -0.000    -0.000    0.000  
 47    45    44    46      3       30.334    0.000    -30.334    -0.000    -0.000    0.000  
 48    45    44    46      3       30.334    0.000    -30.334    -0.000    -0.000    0.000  
 48    45    47    49      3       30.334    0.000    -30.334    -0.000    -0.000    0.000  
 52    50    47    49      3       14.100    0.000    -9.079    -0.000    -5.021    0.000  
 42    44    46    49      3       30.334    0.000    -30.334    -0.000    -0.000    0.000  
 48    45    47    50      3       9.079    0.000    -9.079    -0.000    -0.000    0.000  
 46    49    47    50      3       9.079    0.000    -9.079    -0.000    -0.000    0.000  
 51    49    47    50      3       9.079    0.000    -9.079    -0.000    -0.000    0.000  
 44    46    49    51      3       30.334    0.000    -30.334    -0.000    -0.000    0.000  
 46    49    51    53      3       30.334    0.000    -30.334    -0.000    -0.000    0.000  
 60    54    51    53      3       30.334    0.000    -30.334    -0.000    -0.000    0.000  
 46    49    51    54      3       30.334    0.000    -30.334    -0.000    -0.000    0.000  
 58    53    51    54      3       30.334    0.000    -30.334    -0.000    -0.000    0.000  
 59    53    51    54      3       9.079    0.000    -9.079    -0.000    -0.000    0.000  
 62    59    53    58      3       14.100    0.000    -9.079    -0.000    -5.021    0.000  
 60    58    53    59      3       9.079    0.000    -9.079    -0.000    -0.000    0.000  
 61    58    53    59      3       9.079    0.000    -9.079    -0.000    -0.000    0.000  
 49    51    54    60      3       30.334    0.000    -30.334    -0.000    -0.000    0.000  
 61    58    60    63      3       30.334    0.000    -30.334    -0.000    -0.000    0.000  
 51    54    60    63      3       30.334    0.000    -30.334    -0.000    -0.000    0.000  
 54    60    63    67      3       30.334    0.000    -30.334    -0.000    -0.000    0.000  
 71    68    63    67      3       30.334    0.000    -30.334    -0.000    -0.000    0.000  
 54    60    63    68      3       30.334    0.000    -30.334    -0.000    -0.000    0.000  
 69    67    63    68      3       30.334    0.000    -30.334    -0.000    -0.000    0.000  
 70    67    63    68      3       30.334    0.000    -30.334    -0.000    -0.000    0.000  
 63    67    69    71      3       30.334    0.000    -30.334    -0.000    -0.000    0.000  
 70    67    69    71      3       30.334    0.000    -30.334    -0.000    -0.000    0.000  
 14    11    13    10      3       9.079    0.000    -9.079    -0.000    -0.000    0.000  
 9    11    13    10      3       30.334    0.000    -30.334    -0.000    -0.000    0.000  
 8    10    13    11      3       30.334    0.000    -30.334    -0.000    -0.000    0.000  
 8    9    11    14      3       9.079    0.000    -9.079    -0.000    -0.000    0.000  
 12    9    11    14      3       9.079    0.000    -9.079    -0.000    -0.000    0.000  
 9    11    14    16      3       14.100    0.000    -9.079    -0.000    -5.021    0.000  
 3    6    8    9      3       30.334    0.000    -30.334    -0.000    -0.000    0.000  
 4    6    8    9      3       30.334    0.000    -30.334    -0.000    -0.000    0.000  
 15    13    11    9      3       30.334    0.000    -30.334    -0.000    -0.000    0.000  
 11    9    8    6      3       30.334    0.000    -30.334    -0.000    -0.000    0.000  
 12    9    8    6      3       30.334    0.000    -30.334    -0.000    -0.000    0.000  
 2    4    6    3      3       30.334    0.000    -30.334    -0.000    -0.000    0.000  
 7    4    6    3      3       30.334    0.000    -30.334    -0.000    -0.000    0.000  
 1    3    6    4      3       30.334    0.000    -30.334    -0.000    -0.000    0.000  
 105    108    1    2      3       30.334    0.000    -30.334    -0.000    -0.000    0.000  
 106    108    1    2      3       30.334    0.000    -30.334    -0.000    -0.000    0.000  
 8    6    4    2      3       30.334    0.000    -30.334    -0.000    -0.000    0.000  
 4    2    1    108      3       30.334    0.000    -30.334    -0.000    -0.000    0.000  
 5    2    1    108      3       30.334    0.000    -30.334    -0.000    -0.000    0.000  
 1    108    106    104      3       30.334    0.000    -30.334    -0.000    -0.000    0.000  
 6    4    2    5      3       30.334    0.000    -30.334    -0.000    -0.000    0.000  
 7    4    2    5      3       30.334    0.000    -30.334    -0.000    -0.000    0.000  
 1    2    4    7      3       30.334    0.000    -30.334    -0.000    -0.000    0.000  
 13    11    9    12      3       30.334    0.000    -30.334    -0.000    -0.000    0.000  
 18    24    22    25      3       30.334    0.000    -30.334    -0.000    -0.000    0.000  
 36    33    31    34      3       30.334    0.000    -30.334    -0.000    -0.000    0.000  
 32    35    33    36      3       30.334    0.000    -30.334    -0.000    -0.000    0.000  
 43    40    38    41      3       30.334    0.000    -30.334    -0.000    -0.000    0.000  
 39    42    40    43      3       30.334    0.000    -30.334    -0.000    -0.000    0.000  
 54    60    58    61      3       30.334    0.000    -30.334    -0.000    -0.000    0.000  
 72    69    67    70      3       30.334    0.000    -30.334    -0.000    -0.000    0.000  
 68    71    69    72      3       44.978    0.000    -44.978    -0.000    -0.000    0.000  
 73    71    69    72      3       30.334    0.000    -30.334    -0.000    -0.000    0.000  
 67    69    71    73      3       30.334    0.000    -30.334    -0.000    -0.000    0.000  
 17    22    24    18      3       30.334    0.000    -30.334    -0.000    -0.000    0.000  
 15    18    24    22      3       30.334    0.000    -30.334    -0.000    -0.000    0.000  
 31    33    35    32      3       30.334    0.000    -30.334    -0.000    -0.000    0.000  
 27    32    35    33      3       30.334    0.000    -30.334    -0.000    -0.000    0.000  
 38    40    42    39      3       30.334    0.000    -30.334    -0.000    -0.000    0.000  
 37    39    42    40      3       30.334    0.000    -30.334    -0.000    -0.000    0.000  
 45    47    49    46      3       30.334    0.000    -30.334    -0.000    -0.000    0.000  
 44    46    49    47      3       30.334    0.000    -30.334    -0.000    -0.000    0.000  
 53    58    60    54      3       30.334    0.000    -30.334    -0.000    -0.000    0.000  
 51    54    60    58      3       30.334    0.000    -30.334    -0.000    -0.000    0.000  
 63    68    71    69      3       30.334    0.000    -30.334    -0.000    -0.000    0.000  
 67    69    71    68      3       30.334    0.000    -30.334    -0.000    -0.000    0.000  
 10    8    9    11      3       30.334    0.000    -30.334    -0.000    -0.000    0.000  
 13    11    9    8      3       30.334    0.000    -30.334    -0.000    -0.000    0.000  
 3    1    2    4      3       30.334    0.000    -30.334    -0.000    -0.000    0.000  
 6    4    2    1      3       30.334    0.000    -30.334    -0.000    -0.000    0.000  
 95    90    88    86      3       30.334    0.000    -30.334    -0.000    -0.000    0.000  
 96    90    88    86      3       9.079    0.000    -9.079    -0.000    -0.000    0.000  
 97    95    90    88      3       30.334    0.000    -30.334    -0.000    -0.000    0.000  
 99    96    90    88      3       14.100    0.000    -9.079    -0.000    -5.021    0.000  
 100    97    95    90      3       30.334    0.000    -30.334    -0.000    -0.000    0.000  
 104    100    97    95      3       30.334    0.000    -30.334    -0.000    -0.000    0.000  
 105    100    97    95      3       30.334    0.000    -30.334    -0.000    -0.000    0.000  
 106    104    100    97      3       30.334    0.000    -30.334    -0.000    -0.000    0.000  
 108    106    104    100      3       30.334    0.000    -30.334    -0.000    -0.000    0.000  
 83    86    88    90      3       0.000    0.000    0.000    0.000    0.000    0.000  
 84    86    88    90      3       0.000    0.000    0.000    0.000    0.000    0.000  
 87    84    86    88      3       9.079    0.000    -9.079    -0.000    -0.000    0.000  
 89    87    84    86      3       14.100    0.000    -9.079    -0.000    -5.021    0.000  
 81    83    86    88      3       30.334    0.000    -30.334    -0.000    -0.000    0.000  
 82    81    83    86      3       30.334    0.000    -30.334    -0.000    -0.000    0.000  
 79    81    83    86      3       30.334    0.000    -30.334    -0.000    -0.000    0.000  
 76    79    81    83      3       30.334    0.000    -30.334    -0.000    -0.000    0.000  
 77    79    81    83      3       30.334    0.000    -30.334    -0.000    -0.000    0.000  
 74    76    79    81      3       30.334    0.000    -30.334    -0.000    -0.000    0.000  
 75    74    76    79      3       30.334    0.000    -30.334    -0.000    -0.000    0.000  
 144    74    76    79      3       30.334    0.000    -30.334    -0.000    -0.000    0.000  
 141    144    74    76      3       30.334    0.000    -30.334    -0.000    -0.000    0.000  
 142    144    74    76      3       30.334    0.000    -30.334    -0.000    -0.000    0.000  
 136    141    144    74      3       30.334    0.000    -30.334    -0.000    -0.000    0.000  
 145    142    144    74      3       30.334    0.000    -30.334    -0.000    -0.000    0.000  
 78    75    74    76      3       30.334    0.000    -30.334    -0.000    -0.000    0.000  
 80    77    79    81      3       30.334    0.000    -30.334    -0.000    -0.000    0.000  
 85    82    81    83      3       30.334    0.000    -30.334    -0.000    -0.000    0.000  
 92    89    87    84      3       1.590    4.770    0.000    -6.360    -0.000    0.000  
 93    89    87    84      3       1.590    4.770    0.000    -6.360    -0.000    0.000  
 94    89    87    84      3       1.590    4.770    0.000    -6.360    -0.000    0.000  
 98    95    90    88      3       30.334    0.000    -30.334    -0.000    -0.000    0.000  
 101    99    96    90      3       1.590    4.770    0.000    -6.360    -0.000    0.000  
 102    99    96    90      3       1.590    4.770    0.000    -6.360    -0.000    0.000  
 103    99    96    90      3       1.590    4.770    0.000    -6.360    -0.000    0.000  
 107    104    100    97      3       30.334    0.000    -30.334    -0.000    -0.000    0.000  
 109    106    104    100      3       30.334    0.000    -30.334    -0.000    -0.000    0.000  
 97    91    88    86      3       30.334    0.000    -30.334    -0.000    -0.000    0.000  
 97    91    88    90      3       30.334    0.000    -30.334    -0.000    -0.000    0.000  
 83    86    88    91      3       0.000    0.000    0.000    0.000    0.000    0.000  
 84    86    88    91      3       0.000    0.000    0.000    0.000    0.000    0.000  
 95    90    88    91      3       30.334    0.000    -30.334    -0.000    -0.000    0.000  
 96    90    88    91      3       9.079    0.000    -9.079    -0.000    -0.000    0.000  
 99    96    90    95      3       14.100    0.000    -9.079    -0.000    -5.021    0.000  
 97    95    90    96      3       9.079    0.000    -9.079    -0.000    -0.000    0.000  
 98    95    90    96      3       9.079    0.000    -9.079    -0.000    -0.000    0.000  
 98    95    97    100      3       30.334    0.000    -30.334    -0.000    -0.000    0.000  
 88    91    97    100      3       30.334    0.000    -30.334    -0.000    -0.000    0.000  
 91    97    100    104      3       30.334    0.000    -30.334    -0.000    -0.000    0.000  
 108    105    100    104      3       30.334    0.000    -30.334    -0.000    -0.000    0.000  
 91    97    100    105      3       30.334    0.000    -30.334    -0.000    -0.000    0.000  
 106    104    100    105      3       30.334    0.000    -30.334    -0.000    -0.000    0.000  
 107    104    100    105      3       30.334    0.000    -30.334    -0.000    -0.000    0.000  
 107    104    106    108      3       30.334    0.000    -30.334    -0.000    -0.000    0.000  
 97    100    105    108      3       30.334    0.000    -30.334    -0.000    -0.000    0.000  
 87    84    86    83      3       9.079    0.000    -9.079    -0.000    -0.000    0.000  
 82    84    86    83      3       30.334    0.000    -30.334    -0.000    -0.000    0.000  
 81    83    86    84      3       30.334    0.000    -30.334    -0.000    -0.000    0.000  
 81    82    84    87      3       9.079    0.000    -9.079    -0.000    -0.000    0.000  
 85    82    84    87      3       9.079    0.000    -9.079    -0.000    -0.000    0.000  
 82    84    87    89      3       14.100    0.000    -9.079    -0.000    -5.021    0.000  
 76    79    81    82      3       30.334    0.000    -30.334    -0.000    -0.000    0.000  
 77    79    81    82      3       30.334    0.000    -30.334    -0.000    -0.000    0.000  
 88    86    84    82      3       30.334    0.000    -30.334    -0.000    -0.000    0.000  
 84    82    81    79      3       30.334    0.000    -30.334    -0.000    -0.000    0.000  
 85    82    81    79      3       30.334    0.000    -30.334    -0.000    -0.000    0.000  
 75    77    79    76      3       30.334    0.000    -30.334    -0.000    -0.000    0.000  
 80    77    79    76      3       30.334    0.000    -30.334    -0.000    -0.000    0.000  
 74    76    79    77      3       30.334    0.000    -30.334    -0.000    -0.000    0.000  
 141    144    74    75      3       30.334    0.000    -30.334    -0.000    -0.000    0.000  
 142    144    74    75      3       30.334    0.000    -30.334    -0.000    -0.000    0.000  
 81    79    77    75      3       30.334    0.000    -30.334    -0.000    -0.000    0.000  
 77    75    74    144      3       30.334    0.000    -30.334    -0.000    -0.000    0.000  
 78    75    74    144      3       30.334    0.000    -30.334    -0.000    -0.000    0.000  
 74    144    142    140      3       30.334    0.000    -30.334    -0.000    -0.000    0.000  
 79    77    75    78      3       30.334    0.000    -30.334    -0.000    -0.000    0.000  
 80    77    75    78      3       30.334    0.000    -30.334    -0.000    -0.000    0.000  
 74    75    77    80      3       30.334    0.000    -30.334    -0.000    -0.000    0.000  
 86    84    82    85      3       30.334    0.000    -30.334    -0.000    -0.000    0.000  
 91    97    95    98      3       30.334    0.000    -30.334    -0.000    -0.000    0.000  
 109    106    104    107      3       30.334    0.000    -30.334    -0.000    -0.000    0.000  
 105    108    106    109      3       30.334    0.000    -30.334    -0.000    -0.000    0.000  
 90    95    97    91      3       30.334    0.000    -30.334    -0.000    -0.000    0.000  
 88    91    97    95      3       30.334    0.000    -30.334    -0.000    -0.000    0.000  
 104    106    108    105      3       30.334    0.000    -30.334    -0.000    -0.000    0.000  
 100    105    108    106      3       30.334    0.000    -30.334    -0.000    -0.000    0.000  
 83    81    82    84      3       30.334    0.000    -30.334    -0.000    -0.000    0.000  
 86    84    82    81      3       30.334    0.000    -30.334    -0.000    -0.000    0.000  
 76    74    75    77      3       30.334    0.000    -30.334    -0.000    -0.000    0.000  
 79    77    75    74      3       30.334    0.000    -30.334    -0.000    -0.000    0.000  
 131    126    124    122      3       30.334    0.000    -30.334    -0.000    -0.000    0.000  
 132    126    124    122      3       9.079    0.000    -9.079    -0.000    -0.000    0.000  
 133    131    126    124      3       30.334    0.000    -30.334    -0.000    -0.000    0.000  
 135    132    126    124      3       14.100    0.000    -9.079    -0.000    -5.021    0.000  
 136    133    131    126      3       30.334    0.000    -30.334    -0.000    -0.000    0.000  
 140    136    133    131      3       30.334    0.000    -30.334    -0.000    -0.000    0.000  
 141    136    133    131      3       30.334    0.000    -30.334    -0.000    -0.000    0.000  
 142    140    136    133      3       30.334    0.000    -30.334    -0.000    -0.000    0.000  
 144    142    140    136      3       30.334    0.000    -30.334    -0.000    -0.000    0.000  
 119    122    124    126      3       0.000    0.000    0.000    0.000    0.000    0.000  
 120    122    124    126      3       0.000    0.000    0.000    0.000    0.000    0.000  
 123    120    122    124      3       9.079    0.000    -9.079    -0.000    -0.000    0.000  
 125    123    120    122      3       14.100    0.000    -9.079    -0.000    -5.021    0.000  
 117    119    122    124      3       30.334    0.000    -30.334    -0.000    -0.000    0.000  
 118    117    119    122      3       30.334    0.000    -30.334    -0.000    -0.000    0.000  
 115    117    119    122      3       30.334    0.000    -30.334    -0.000    -0.000    0.000  
 112    115    117    119      3       30.334    0.000    -30.334    -0.000    -0.000    0.000  
 113    115    117    119      3       30.334    0.000    -30.334    -0.000    -0.000    0.000  
 110    112    115    117      3       30.334    0.000    -30.334    -0.000    -0.000    0.000  
 111    110    112    115      3       30.334    0.000    -30.334    -0.000    -0.000    0.000  
 216    110    112    115      3       30.334    0.000    -30.334    -0.000    -0.000    0.000  
 213    216    110    112      3       30.334    0.000    -30.334    -0.000    -0.000    0.000  
 214    216    110    112      3       30.334    0.000    -30.334    -0.000    -0.000    0.000  
 208    213    216    110      3       30.334    0.000    -30.334    -0.000    -0.000    0.000  
 217    214    216    110      3       30.334    0.000    -30.334    -0.000    -0.000    0.000  
 114    111    110    112      3       30.334    0.000    -30.334    -0.000    -0.000    0.000  
 116    113    115    117      3       30.334    0.000    -30.334    -0.000    -0.000    0.000  
 121    118    117    119      3       30.334    0.000    -30.334    -0.000    -0.000    0.000  
 128    125    123    120      3       1.590    4.770    0.000    -6.360    -0.000    0.000  
 129    125    123    120      3       1.590    4.770    0.000    -6.360    -0.000    0.000  
 130    125    123    120      3       1.590    4.770    0.000    -6.360    -0.000    0.000  
 134    131    126    124      3       30.334    0.000    -30.334    -0.000    -0.000    0.000  
 137    135    132    126      3       1.590    4.770    0.000    -6.360    -0.000    0.000  
 138    135    132    126      3       1.590    4.770    0.000    -6.360    -0.000    0.000  
 139    135    132    126      3       1.590    4.770    0.000    -6.360    -0.000    0.000  
 143    140    136    133      3       30.334    0.000    -30.334    -0.000    -0.000    0.000  
 145    142    140    136      3       30.334    0.000    -30.334    -0.000    -0.000    0.000  
 133    127    124    122      3       30.334    0.000    -30.334    -0.000    -0.000    0.000  
 133    127    124    126      3       30.334    0.000    -30.334    -0.000    -0.000    0.000  
 119    122    124    127      3       0.000    0.000    0.000    0.000    0.000    0.000  
 120    122    124    127      3       0.000    0.000    0.000    0.000    0.000    0.000  
 131    126    124    127      3       30.334    0.000    -30.334    -0.000    -0.000    0.000  
 132    126    124    127      3       9.079    0.000    -9.079    -0.000    -0.000    0.000  
 135    132    126    131      3       14.100    0.000    -9.079    -0.000    -5.021    0.000  
 133    131    126    132      3       9.079    0.000    -9.079    -0.000    -0.000    0.000  
 134    131    126    132      3       9.079    0.000    -9.079    -0.000    -0.000    0.000  
 134    131    133    136      3       30.334    0.000    -30.334    -0.000    -0.000    0.000  
 124    127    133    136      3       30.334    0.000    -30.334    -0.000    -0.000    0.000  
 127    133    136    140      3       30.334    0.000    -30.334    -0.000    -0.000    0.000  
 144    141    136    140      3       30.334    0.000    -30.334    -0.000    -0.000    0.000  
 127    133    136    141      3       30.334    0.000    -30.334    -0.000    -0.000    0.000  
 142    140    136    141      3       30.334    0.000    -30.334    -0.000    -0.000    0.000  
 143    140    136    141      3       30.334    0.000    -30.334    -0.000    -0.000    0.000  
 143    140    142    144      3       30.334    0.000    -30.334    -0.000    -0.000    0.000  
 133    136    141    144      3       30.334    0.000    -30.334    -0.000    -0.000    0.000  
 123    120    122    119      3       9.079    0.000    -9.079    -0.000    -0.000    0.000  
 118    120    122    119      3       30.334    0.000    -30.334    -0.000    -0.000    0.000  
 117    119    122    120      3       30.334    0.000    -30.334    -0.000    -0.000    0.000  
 117    118    120    123      3       9.079    0.000    -9.079    -0.000    -0.000    0.000  
 121    118    120    123      3       9.079    0.000    -9.079    -0.000    -0.000    0.000  
 118    120    123    125      3       14.100    0.000    -9.079    -0.000    -5.021    0.000  
 112    115    117    118      3       30.334    0.000    -30.334    -0.000    -0.000    0.000  
 113    115    117    118      3       30.334    0.000    -30.334    -0.000    -0.000    0.000  
 124    122    120    118      3       30.334    0.000    -30.334    -0.000    -0.000    0.000  
 120    118    117    115      3       30.334    0.000    -30.334    -0.000    -0.000    0.000  
 121    118    117    115      3       30.334    0.000    -30.334    -0.000    -0.000    0.000  
 111    113    115    112      3       30.334    0.000    -30.334    -0.000    -0.000    0.000  
 116    113    115    112      3       30.334    0.000    -30.334    -0.000    -0.000    0.000  
 110    112    115    113      3       30.334    0.000    -30.334    -0.000    -0.000    0.000  
 213    216    110    111      3       30.334    0.000    -30.334    -0.000    -0.000    0.000  
 214    216    110    111      3       30.334    0.000    -30.334    -0.000    -0.000    0.000  
 117    115    113    111      3       30.334    0.000    -30.334    -0.000    -0.000    0.000  
 113    111    110    216      3       30.334    0.000    -30.334    -0.000    -0.000    0.000  
 114    111    110    216      3       30.334    0.000    -30.334    -0.000    -0.000    0.000  
 110    216    214    212      3       30.334    0.000    -30.334    -0.000    -0.000    0.000  
 115    113    111    114      3       30.334    0.000    -30.334    -0.000    -0.000    0.000  
 116    113    111    114      3       30.334    0.000    -30.334    -0.000    -0.000    0.000  
 110    111    113    116      3       30.334    0.000    -30.334    -0.000    -0.000    0.000  
 122    120    118    121      3       30.334    0.000    -30.334    -0.000    -0.000    0.000  
 127    133    131    134      3       30.334    0.000    -30.334    -0.000    -0.000    0.000  
 145    142    140    143      3       30.334    0.000    -30.334    -0.000    -0.000    0.000  
 141    144    142    145      3       30.334    0.000    -30.334    -0.000    -0.000    0.000  
 126    131    133    127      3       30.334    0.000    -30.334    -0.000    -0.000    0.000  
 124    127    133    131      3       30.334    0.000    -30.334    -0.000    -0.000    0.000  
 140    142    144    141      3       30.334    0.000    -30.334    -0.000    -0.000    0.000  
 136    141    144    142      3       30.334    0.000    -30.334    -0.000    -0.000    0.000  
 119    117    118    120      3       30.334    0.000    -30.334    -0.000    -0.000    0.000  
 122    120    118    117      3       30.334    0.000    -30.334    -0.000    -0.000    0.000  
 112    110    111    113      3       30.334    0.000    -30.334    -0.000    -0.000    0.000  
 115    113    111    110      3       30.334    0.000    -30.334    -0.000    -0.000    0.000  
 203    198    196    194      3       30.334    0.000    -30.334    -0.000    -0.000    0.000  
 204    198    196    194      3       9.079    0.000    -9.079    -0.000    -0.000    0.000  
 205    203    198    196      3       30.334    0.000    -30.334    -0.000    -0.000    0.000  
 207    204    198    196      3       14.100    0.000    -9.079    -0.000    -5.021    0.000  
 208    205    203    198      3       30.334    0.000    -30.334    -0.000    -0.000    0.000  
 212    208    205    203      3       30.334    0.000    -30.334    -0.000    -0.000    0.000  
 213    208    205    203      3       30.334    0.000    -30.334    -0.000    -0.000    0.000  
 214    212    208    205      3       30.334    0.000    -30.334    -0.000    -0.000    0.000  
 216    214    212    208      3       30.334    0.000    -30.334    -0.000    -0.000    0.000  
 191    194    196    198      3       0.000    0.000    0.000    0.000    0.000    0.000  
 192    194    196    198      3       0.000    0.000    0.000    0.000    0.000    0.000  
 195    192    194    196      3       9.079    0.000    -9.079    -0.000    -0.000    0.000  
 197    195    192    194      3       14.100    0.000    -9.079    -0.000    -5.021    0.000  
 189    191    194    196      3       30.334    0.000    -30.334    -0.000    -0.000    0.000  
 190    189    191    194      3       30.334    0.000    -30.334    -0.000    -0.000    0.000  
 187    189    191    194      3       30.334    0.000    -30.334    -0.000    -0.000    0.000  
 184    187    189    191      3       30.334    0.000    -30.334    -0.000    -0.000    0.000  
 185    187    189    191      3       30.334    0.000    -30.334    -0.000    -0.000    0.000  
 182    184    187    189      3       30.334    0.000    -30.334    -0.000    -0.000    0.000  
 183    182    184    187      3       30.334    0.000    -30.334    -0.000    -0.000    0.000  
 180    182    184    187      3       30.334    0.000    -30.334    -0.000    -0.000    0.000  
 177    180    182    184      3       30.334    0.000    -30.334    -0.000    -0.000    0.000  
 178    180    182    184      3       30.334    0.000    -30.334    -0.000    -0.000    0.000  
 172    177    180    182      3       30.334    0.000    -30.334    -0.000    -0.000    0.000  
 176    172    177    180      3       30.334    0.000    -30.334    -0.000    -0.000    0.000  
 169    172    177    180      3       30.334    0.000    -30.334    -0.000    -0.000    0.000  
 163    169    172    177      3       30.334    0.000    -30.334    -0.000    -0.000    0.000  
 167    169    172    177      3       30.334    0.000    -30.334    -0.000    -0.000    0.000  
 160    163    169    172      3       30.334    0.000    -30.334    -0.000    -0.000    0.000  
 162    160    163    169      3       30.334    0.000    -30.334    -0.000    -0.000    0.000  
 168    162    160    163      3       9.079    0.000    -9.079    -0.000    -0.000    0.000  
 171    168    162    160      3       14.100    0.000    -9.079    -0.000    -5.021    0.000  
 158    160    163    169      3       30.334    0.000    -30.334    -0.000    -0.000    0.000  
 155    158    160    163      3       30.334    0.000    -30.334    -0.000    -0.000    0.000  
 156    158    160    163      3       30.334    0.000    -30.334    -0.000    -0.000    0.000  
 159    156    158    160      3       9.079    0.000    -9.079    -0.000    -0.000    0.000  
 161    159    156    158      3       14.100    0.000    -9.079    -0.000    -5.021    0.000  
 153    155    158    160      3       30.334    0.000    -30.334    -0.000    -0.000    0.000  
 154    153    155    158      3       30.334    0.000    -30.334    -0.000    -0.000    0.000  
 151    153    155    158      3       30.334    0.000    -30.334    -0.000    -0.000    0.000  
 148    151    153    155      3       30.334    0.000    -30.334    -0.000    -0.000    0.000  
 149    151    153    155      3       30.334    0.000    -30.334    -0.000    -0.000    0.000  
 146    148    151    153      3       30.334    0.000    -30.334    -0.000    -0.000    0.000  
 147    146    148    151      3       30.334    0.000    -30.334    -0.000    -0.000    0.000  
 150    147    146    148      3       44.978    0.000    -44.978    -0.000    -0.000    0.000  
 152    149    151    153      3       30.334    0.000    -30.334    -0.000    -0.000    0.000  
 157    154    153    155      3       30.334    0.000    -30.334    -0.000    -0.000    0.000  
 164    161    159    156      3       1.590    4.770    0.000    -6.360    -0.000    0.000  
 165    161    159    156      3       1.590    4.770    0.000    -6.360    -0.000    0.000  
 166    161    159    156      3       1.590    4.770    0.000    -6.360    -0.000    0.000  
 170    167    169    172      3       30.334    0.000    -30.334    -0.000    -0.000    0.000  
 173    171    168    162      3       1.590    4.770    0.000    -6.360    -0.000    0.000  
 174    171    168    162      3       1.590    4.770    0.000    -6.360    -0.000    0.000  
 175    171    168    162      3       1.590    4.770    0.000    -6.360    -0.000    0.000  
 179    176    172    177      3       30.334    0.000    -30.334    -0.000    -0.000    0.000  
 181    178    180    182      3       30.334    0.000    -30.334    -0.000    -0.000    0.000  
 186    183    182    184      3       30.334    0.000    -30.334    -0.000    -0.000    0.000  
 188    185    187    189      3       30.334    0.000    -30.334    -0.000    -0.000    0.000  
 193    190    189    191      3       30.334    0.000    -30.334    -0.000    -0.000    0.000  
 200    197    195    192      3       1.590    4.770    0.000    -6.360    -0.000    0.000  
 201    197    195    192      3       1.590    4.770    0.000    -6.360    -0.000    0.000  
 202    197    195    192      3       1.590    4.770    0.000    -6.360    -0.000    0.000  
 206    203    198    196      3       30.334    0.000    -30.334    -0.000    -0.000    0.000  
 209    207    204    198      3       1.590    4.770    0.000    -6.360    -0.000    0.000  
 210    207    204    198      3       1.590    4.770    0.000    -6.360    -0.000    0.000  
 211    207    204    198      3       1.590    4.770    0.000    -6.360    -0.000    0.000  
 215    212    208    205      3       30.334    0.000    -30.334    -0.000    -0.000    0.000  
 217    214    212    208      3       30.334    0.000    -30.334    -0.000    -0.000    0.000  
 218    146    148    151      3       30.334    0.000    -30.334    -0.000    -0.000    0.000  
 205    199    196    194      3       30.334    0.000    -30.334    -0.000    -0.000    0.000  
 205    199    196    198      3       30.334    0.000    -30.334    -0.000    -0.000    0.000  
 191    194    196    199      3       0.000    0.000    0.000    0.000    0.000    0.000  
 192    194    196    199      3       0.000    0.000    0.000    0.000    0.000    0.000  
 203    198    196    199      3       30.334    0.000    -30.334    -0.000    -0.000    0.000  
 204    198    196    199      3       9.079    0.000    -9.079    -0.000    -0.000    0.000  
 207    204    198    203      3       14.100    0.000    -9.079    -0.000    -5.021    0.000  
 205    203    198    204      3       9.079    0.000    -9.079    -0.000    -0.000    0.000  
 206    203    198    204      3       9.079    0.000    -9.079    -0.000    -0.000    0.000  
 206    203    205    208      3       30.334    0.000    -30.334    -0.000    -0.000    0.000  
 196    199    205    208      3       30.334    0.000    -30.334    -0.000    -0.000    0.000  
 199    205    208    212      3       30.334    0.000    -30.334    -0.000    -0.000    0.000  
 216    213    208    212      3       30.334    0.000    -30.334    -0.000    -0.000    0.000  
 199    205    208    213      3       30.334    0.000    -30.334    -0.000    -0.000    0.000  
 214    212    208    213      3       30.334    0.000    -30.334    -0.000    -0.000    0.000  
 215    212    208    213      3       30.334    0.000    -30.334    -0.000    -0.000    0.000  
 215    212    214    216      3       30.334    0.000    -30.334    -0.000    -0.000    0.000  
 205    208    213    216      3       30.334    0.000    -30.334    -0.000    -0.000    0.000  
 195    192    194    191      3       9.079    0.000    -9.079    -0.000    -0.000    0.000  
 190    192    194    191      3       30.334    0.000    -30.334    -0.000    -0.000    0.000  
 189    191    194    192      3       30.334    0.000    -30.334    -0.000    -0.000    0.000  
 189    190    192    195      3       9.079    0.000    -9.079    -0.000    -0.000    0.000  
 193    190    192    195      3       9.079    0.000    -9.079    -0.000    -0.000    0.000  
 190    192    195    197      3       14.100    0.000    -9.079    -0.000    -5.021    0.000  
 184    187    189    190      3       30.334    0.000    -30.334    -0.000    -0.000    0.000  
 185    187    189    190      3       30.334    0.000    -30.334    -0.000    -0.000    0.000  
 196    194    192    190      3       30.334    0.000    -30.334    -0.000    -0.000    0.000  
 192    190    189    187      3       30.334    0.000    -30.334    -0.000    -0.000    0.000  
 193    190    189    187      3       30.334    0.000    -30.334    -0.000    -0.000    0.000  
 183    185    187    184      3       30.334    0.000    -30.334    -0.000    -0.000    0.000  
 188    185    187    184      3       30.334    0.000    -30.334    -0.000    -0.000    0.000  
 182    184    187    185      3       30.334    0.000    -30.334    -0.000    -0.000    0.000  
 177    180    182    183      3       30.334    0.000    -30.334    -0.000    -0.000    0.000  
 178    180    182    183      3       30.334    0.000    -30.334    -0.000    -0.000    0.000  
 189    187    185    183      3       30.334    0.000    -30.334    -0.000    -0.000    0.000  
 185    183    182    180      3       30.334    0.000    -30.334    -0.000    -0.000    0.000  
 186    183    182    180      3       30.334    0.000    -30.334    -0.000    -0.000    0.000  
 176    178    180    177      3       30.334    0.000    -30.334    -0.000    -0.000    0.000  
 181    178    180    177      3       30.334    0.000    -30.334    -0.000    -0.000    0.000  
 172    177    180    178      3       30.334    0.000    -30.334    -0.000    -0.000    0.000  
 163    169    172    176      3       30.334    0.000    -30.334    -0.000    -0.000    0.000  
 167    169    172    176      3       30.334    0.000    -30.334    -0.000    -0.000    0.000  
 182    180    178    176      3       30.334    0.000    -30.334    -0.000    -0.000    0.000  
 178    176    172    169      3       30.334    0.000    -30.334    -0.000    -0.000    0.000  
 179    176    172    169      3       30.334    0.000    -30.334    -0.000    -0.000    0.000  
 162    167    169    163      3       30.334    0.000    -30.334    -0.000    -0.000    0.000  
 170    167    169    163      3       30.334    0.000    -30.334    -0.000    -0.000    0.000  
 160    163    169    167      3       30.334    0.000    -30.334    -0.000    -0.000    0.000  
 155    158    160    162      3       30.334    0.000    -30.334    -0.000    -0.000    0.000  
 156    158    160    162      3       30.334    0.000    -30.334    -0.000    -0.000    0.000  
 172    169    167    162      3       30.334    0.000    -30.334    -0.000    -0.000    0.000  
 158    160    162    168      3       9.079    0.000    -9.079    -0.000    -0.000    0.000  
 169    167    162    168      3       9.079    0.000    -9.079    -0.000    -0.000    0.000  
 170    167    162    168      3       9.079    0.000    -9.079    -0.000    -0.000    0.000  
 167    162    168    171      3       14.100    0.000    -9.079    -0.000    -5.021    0.000  
 167    162    160    158      3       30.334    0.000    -30.334    -0.000    -0.000    0.000  
 159    156    158    155      3       9.079    0.000    -9.079    -0.000    -0.000    0.000  
 154    156    158    155      3       30.334    0.000    -30.334    -0.000    -0.000    0.000  
 153    155    158    156      3       30.334    0.000    -30.334    -0.000    -0.000    0.000  
 153    154    156    159      3       9.079    0.000    -9.079    -0.000    -0.000    0.000  
 157    154    156    159      3       9.079    0.000    -9.079    -0.000    -0.000    0.000  
 154    156    159    161      3       14.100    0.000    -9.079    -0.000    -5.021    0.000  
 148    151    153    154      3       30.334    0.000    -30.334    -0.000    -0.000    0.000  
 149    151    153    154      3       30.334    0.000    -30.334    -0.000    -0.000    0.000  
 160    158    156    154      3       30.334    0.000    -30.334    -0.000    -0.000    0.000  
 156    154    153    151      3       30.334    0.000    -30.334    -0.000    -0.000    0.000  
 157    154    153    151      3       30.334    0.000    -30.334    -0.000    -0.000    0.000  
 147    149    151    148      3       30.334    0.000    -30.334    -0.000    -0.000    0.000  
 152    149    151    148      3       30.334    0.000    -30.334    -0.000    -0.000    0.000  
 146    148    151    149      3       30.334    0.000    -30.334    -0.000    -0.000    0.000  
 153    151    149    147      3       30.334    0.000    -30.334    -0.000    -0.000    0.000  
 218    146    147    150      3       30.334    0.000    -30.334    -0.000    -0.000    0.000  
 151    149    147    150      3       30.334    0.000    -30.334    -0.000    -0.000    0.000  
 152    149    147    150      3       30.334    0.000    -30.334    -0.000    -0.000    0.000  
 146    147    149    152      3       30.334    0.000    -30.334    -0.000    -0.000    0.000  
 158    156    154    157      3       30.334    0.000    -30.334    -0.000    -0.000    0.000  
 160    162    167    170      3       30.334    0.000    -30.334    -0.000    -0.000    0.000  
 180    178    176    179      3       30.334    0.000    -30.334    -0.000    -0.000    0.000  
 181    178    176    179      3       30.334    0.000    -30.334    -0.000    -0.000    0.000  
 172    176    178    181      3       30.334    0.000    -30.334    -0.000    -0.000    0.000  
 187    185    183    186      3       30.334    0.000    -30.334    -0.000    -0.000    0.000  
 188    185    183    186      3       30.334    0.000    -30.334    -0.000    -0.000    0.000  
 182    183    185    188      3       30.334    0.000    -30.334    -0.000    -0.000    0.000  
 194    192    190    193      3       30.334    0.000    -30.334    -0.000    -0.000    0.000  
 199    205    203    206      3       30.334    0.000    -30.334    -0.000    -0.000    0.000  
 217    214    212    215      3       30.334    0.000    -30.334    -0.000    -0.000    0.000  
 213    216    214    217      3       30.334    0.000    -30.334    -0.000    -0.000    0.000  
 149    147    146    218      3       30.334    0.000    -30.334    -0.000    -0.000    0.000  
 198    203    205    199      3       30.334    0.000    -30.334    -0.000    -0.000    0.000  
 196    199    205    203      3       30.334    0.000    -30.334    -0.000    -0.000    0.000  
 212    214    216    213      3       30.334    0.000    -30.334    -0.000    -0.000    0.000  
 208    213    216    214      3       30.334    0.000    -30.334    -0.000    -0.000    0.000  
 191    189    190    192      3       30.334    0.000    -30.334    -0.000    -0.000    0.000  
 194    192    190    189      3       30.334    0.000    -30.334    -0.000    -0.000    0.000  
 184    182    183    185      3       30.334    0.000    -30.334    -0.000    -0.000    0.000  
 187    185    183    182      3       30.334    0.000    -30.334    -0.000    -0.000    0.000  
 177    172    176    178      3       30.334    0.000    -30.334    -0.000    -0.000    0.000  
 180    178    176    172      3       30.334    0.000    -30.334    -0.000    -0.000    0.000  
 163    160    162    167      3       30.334    0.000    -30.334    -0.000    -0.000    0.000  
 169    167    162    160      3       30.334    0.000    -30.334    -0.000    -0.000    0.000  
 155    153    154    156      3       30.334    0.000    -30.334    -0.000    -0.000    0.000  
 158    156    154    153      3       30.334    0.000    -30.334    -0.000    -0.000    0.000  
 148    146    147    149      3       30.334    0.000    -30.334    -0.000    -0.000    0.000  
 151    149    147    146      3       30.334    0.000    -30.334    -0.000    -0.000    0.000  
 
[ dihedrals ]
 13    15    17    18      4       180.000    10.460    2  
 15    13    10    11      4       180.000    10.460    2  
 15    17    22    23      4       180.000    10.460    2  
 17    22    24    25      4       180.000    10.460    2  
 22    24    18    27      4       180.000    10.460    2  
 24    27    31    32      4       180.000    10.460    2  
 27    31    33    34      4       180.000    10.460    2  
 31    33    35    36      4       180.000    10.460    2  
 33    35    32    37      4       180.000    10.460    2  
 35    37    38    39      4       180.000    10.460    2  
 37    38    40    41      4       180.000    10.460    2  
 38    40    42    43      4       180.000    10.460    2  
 40    42    39    44      4       180.000    10.460    2  
 42    44    45    46      4       180.000    10.460    2  
 44    45    47    48      4       180.000    10.460    2  
 45    47    49    50      4       180.000    10.460    2  
 47    49    46    51      4       180.000    10.460    2  
 49    51    53    54      4       180.000    10.460    2  
 51    53    58    59      4       180.000    10.460    2  
 53    58    60    61      4       180.000    10.460    2  
 58    60    54    63      4       180.000    10.460    2  
 60    63    67    68      4       180.000    10.460    2  
 63    67    69    70      4       180.000    10.460    2  
 67    69    71    72      4       180.000    10.460    2  
 68    71    69    73      4       180.000    10.460    2  
 13    11    14    9      4       180.000    10.460    2  
 10    8    9    6      4       180.000    10.460    2  
 8    9    11    12      4       180.000    10.460    2  
 8    6    3    4      4       180.000    10.460    2  
 6    4    2    7      4       180.000    10.460    2  
 3    1    2    108      4       180.000    10.460    2  
 1    2    4    5      4       180.000    10.460    2  
 1    108    105    106      4       180.000    10.460    2  
 86    88    90    91      4       180.000    10.460    2  
 88    86    83    84      4       180.000    10.460    2  
 88    90    95    96      4       180.000    10.460    2  
 90    95    97    98      4       180.000    10.460    2  
 95    97    91    100      4       180.000    10.460    2  
 97    100    104    105      4       180.000    10.460    2  
 100    104    106    107      4       180.000    10.460    2  
 104    106    108    109      4       180.000    10.460    2  
 86    84    87    82      4       180.000    10.460    2  
 83    81    82    79      4       180.000    10.460    2  
 81    82    84    85      4       180.000    10.460    2  
 81    79    76    77      4       180.000    10.460    2  
 79    77    75    80      4       180.000    10.460    2  
 76    74    75    144      4       180.000    10.460    2  
 74    75    77    78      4       180.000    10.460    2  
 74    144    141    142      4       180.000    10.460    2  
 122    124    126    127      4       180.000    10.460    2  
 124    122    119    120      4       180.000    10.460    2  
 124    126    131    132      4       180.000    10.460    2  
 126    131    133    134      4       180.000    10.460    2  
 131    133    127    136      4       180.000    10.460    2  
 133    136    140    141      4       180.000    10.460    2  
 136    140    142    143      4       180.000    10.460    2  
 140    142    144    145      4       180.000    10.460    2  
 122    120    123    118      4       180.000    10.460    2  
 119    117    118    115      4       180.000    10.460    2  
 117    118    120    121      4       180.000    10.460    2  
 117    115    112    113      4       180.000    10.460    2  
 115    113    111    116      4       180.000    10.460    2  
 112    110    111    216      4       180.000    10.460    2  
 110    111    113    114      4       180.000    10.460    2  
 110    216    213    214      4       180.000    10.460    2  
 194    196    198    199      4       180.000    10.460    2  
 196    194    191    192      4       180.000    10.460    2  
 196    198    203    204      4       180.000    10.460    2  
 198    203    205    206      4       180.000    10.460    2  
 203    205    199    208      4       180.000    10.460    2  
 205    208    212    213      4       180.000    10.460    2  
 208    212    214    215      4       180.000    10.460    2  
 212    214    216    217      4       180.000    10.460    2  
 194    192    195    190      4       180.000    10.460    2  
 191    189    190    187      4       180.000    10.460    2  
 189    190    192    193      4       180.000    10.460    2  
 189    187    184    185      4       180.000    10.460    2  
 187    185    183    188      4       180.000    10.460    2  
 184    182    183    180      4       180.000    10.460    2  
 182    183    185    186      4       180.000    10.460    2  
 182    180    177    178      4       180.000    10.460    2  
 180    178    176    181      4       180.000    10.460    2  
 177    172    176    169      4       180.000    10.460    2  
 172    176    178    179      4       180.000    10.460    2  
 172    169    163    167      4       180.000    10.460    2  
 169    167    162    170      4       180.000    10.460    2  
 163    160    162    158      4       180.000    10.460    2  
 160    162    167    168      4       180.000    10.460    2  
 160    158    155    156      4       180.000    10.460    2  
 158    156    159    154      4       180.000    10.460    2  
 155    153    154    151      4       180.000    10.460    2  
 153    154    156    157      4       180.000    10.460    2  
 153    151    148    149      4       180.000    10.460    2  
 151    149    147    152      4       180.000    10.460    2  
 148    146    147    218      4       180.000    10.460    2  
 146    147    149    150      4       180.000    10.460    2  
 
[ pairs ]
 15    22      1                 
 15    24      1                 
 15    26      1                 
 15    27      1                 
 15    14      1                 
 15    8       1                 
 15    9       1                 
 15    25      1                 
 13    22      1                 
 13    23      1                 
 13    24      1                 
 13    16      1                 
 13    8       1                 
 13    9       1                 
 13    6       1                 
 13    12      1                 
 17    18      1                 
 17    24      1                 
 17    27      1                 
 17    10      1                 
 17    11      1                 
 17    28      1                 
 17    29      1                 
 17    30      1                 
 18    22      1                 
 18    23      1                 
 18    31      1                 
 18    32      1                 
 18    10      1                 
 18    11      1                 
 18    25      1                 
 22    26      1                 
 22    31      1                 
 22    32      1                 
 23    24      1                 
 23    25      1                 
 24    33      1                 
 24    35      1                 
 24    34      1                 
 27    33      1                 
 27    35      1                 
 27    37      1                 
 27    25      1                 
 27    36      1                 
 31    32      1                 
 31    35      1                 
 31    37      1                 
 32    33      1                 
 32    38      1                 
 32    39      1                 
 32    34      1                 
 32    36      1                 
 33    38      1                 
 33    39      1                 
 35    40      1                 
 35    42      1                 
 35    34      1                 
 35    41      1                 
 37    40      1                 
 37    42      1                 
 37    44      1                 
 37    36      1                 
 37    43      1                 
 38    39      1                 
 38    42      1                 
 38    44      1                 
 39    40      1                 
 39    45      1                 
 39    46      1                 
 39    41      1                 
 39    43      1                 
 40    45      1                 
 40    46      1                 
 42    47      1                 
 42    49      1                 
 42    41      1                 
 42    48      1                 
 44    47      1                 
 44    49      1                 
 44    50      1                 
 44    51      1                 
 44    43      1                 
 45    46      1                 
 45    49      1                 
 45    51      1                 
 45    52      1                 
 46    47      1                 
 46    50      1                 
 46    53      1                 
 46    54      1                 
 46    48      1                 
 47    53      1                 
 47    54      1                 
 47    55      1                 
 47    56      1                 
 47    57      1                 
 49    52      1                 
 49    58      1                 
 49    59      1                 
 49    60      1                 
 49    48      1                 
 50    51      1                 
 50    48      1                 
 51    58      1                 
 51    60      1                 
 51    62      1                 
 51    63      1                 
 51    61      1                 
 53    54      1                 
 53    60      1                 
 53    63      1                 
 53    64      1                 
 53    65      1                 
 53    66      1                 
 54    58      1                 
 54    59      1                 
 54    67      1                 
 54    68      1                 
 54    61      1                 
 58    62      1                 
 58    67      1                 
 58    68      1                 
 59    60      1                 
 59    61      1                 
 60    69      1                 
 60    71      1                 
 60    70      1                 
 63    69      1                 
 63    71      1                 
 63    61      1                 
 63    72      1                 
 63    73      1                 
 67    68      1                 
 67    71      1                 
 67    73      1                 
 68    69      1                 
 68    70      1                 
 68    72      1                 
 71    70      1                 
 10    11      1                 
 10    14      1                 
 10    9       1                 
 10    3       1                 
 10    4       1                 
 10    12      1                 
 11    8       1                 
 11    6       1                 
 11    19      1                 
 11    20      1                 
 11    21      1                 
 14    8       1                 
 14    12      1                 
 16    9       1                 
  8    1       1                 
  8    2       1                 
  8    7       1                 
  9    3       1                 
  9    4       1                 
  6    1       1                 
  6    2       1                 
 6    108      1                 
  6    5       1                 
 6    12       1                 
  3    4       1                 
  3    2       1                 
 3    105      1                 
 3    106      1                 
  3    5       1                 
  3    7       1                 
  4    1       1                 
 4    108      1                 
 1    100      1                 
 1    104      1                 
 1    109      1                 
  1    7       1                 
 2    105      1                 
 2    106      1                 
 108    5      1                 
  5    7       1                 
 34    36      1                 
 41    43      1                 
 70    72      1                 
 72    73      1                 
 88    95      1                 
 88    97      1                 
 88    99      1                 
 88    100      1                 
 88    87      1                 
 88    81      1                 
 88    82      1                 
 88    98      1                 
 86    95      1                 
 86    96      1                 
 86    97      1                 
 86    89      1                 
 86    81      1                 
 86    82      1                 
 86    79      1                 
 86    85      1                 
 90    91      1                 
 90    97      1                 
 90    100      1                 
 90    83      1                 
 90    84      1                 
 90    101      1                 
 90    102      1                 
 90    103      1                 
 91    95      1                 
 91    96      1                 
 91    104      1                 
 91    105      1                 
 91    83      1                 
 91    84      1                 
 91    98      1                 
 95    99      1                 
 95    104      1                 
 95    105      1                 
 96    97      1                 
 96    98      1                 
 97    106      1                 
 97    108      1                 
 97    107      1                 
 100    106      1                 
 100    108      1                 
 100    98      1                 
 100    109      1                 
 104    105      1                 
 104    108      1                 
 105    106      1                 
 105    107      1                 
 105    109      1                 
 108    107      1                 
 83    84      1                 
 83    87      1                 
 83    82      1                 
 83    76      1                 
 83    77      1                 
 83    85      1                 
 84    81      1                 
 84    79      1                 
 84    92      1                 
 84    93      1                 
 84    94      1                 
 87    81      1                 
 87    85      1                 
 89    82      1                 
 81    74      1                 
 81    75      1                 
 81    80      1                 
 82    76      1                 
 82    77      1                 
 79    74      1                 
 79    75      1                 
 79    144      1                 
 79    78      1                 
 79    85      1                 
 76    77      1                 
 76    75      1                 
 76    141      1                 
 76    142      1                 
 76    78      1                 
 76    80      1                 
 77    74      1                 
 77    144      1                 
 74    136      1                 
 74    140      1                 
 74    145      1                 
 74    80      1                 
 75    141      1                 
 75    142      1                 
 144    78      1                 
 78    80      1                 
 107    109      1                 
 124    131      1                 
 124    133      1                 
 124    135      1                 
 124    136      1                 
 124    123      1                 
 124    117      1                 
 124    118      1                 
 124    134      1                 
 122    131      1                 
 122    132      1                 
 122    133      1                 
 122    125      1                 
 122    117      1                 
 122    118      1                 
 122    115      1                 
 122    121      1                 
 126    127      1                 
 126    133      1                 
 126    136      1                 
 126    119      1                 
 126    120      1                 
 126    137      1                 
 126    138      1                 
 126    139      1                 
 127    131      1                 
 127    132      1                 
 127    140      1                 
 127    141      1                 
 127    119      1                 
 127    120      1                 
 127    134      1                 
 131    135      1                 
 131    140      1                 
 131    141      1                 
 132    133      1                 
 132    134      1                 
 133    142      1                 
 133    144      1                 
 133    143      1                 
 136    142      1                 
 136    144      1                 
 136    134      1                 
 136    145      1                 
 140    141      1                 
 140    144      1                 
 141    142      1                 
 141    143      1                 
 141    145      1                 
 144    143      1                 
 119    120      1                 
 119    123      1                 
 119    118      1                 
 119    112      1                 
 119    113      1                 
 119    121      1                 
 120    117      1                 
 120    115      1                 
 120    128      1                 
 120    129      1                 
 120    130      1                 
 123    117      1                 
 123    121      1                 
 125    118      1                 
 117    110      1                 
 117    111      1                 
 117    116      1                 
 118    112      1                 
 118    113      1                 
 115    110      1                 
 115    111      1                 
 115    216      1                 
 115    114      1                 
 115    121      1                 
 112    113      1                 
 112    111      1                 
 112    213      1                 
 112    214      1                 
 112    114      1                 
 112    116      1                 
 113    110      1                 
 113    216      1                 
 110    208      1                 
 110    212      1                 
 110    217      1                 
 110    116      1                 
 111    213      1                 
 111    214      1                 
 216    114      1                 
 114    116      1                 
 143    145      1                 
 196    203      1                 
 196    205      1                 
 196    207      1                 
 196    208      1                 
 196    195      1                 
 196    189      1                 
 196    190      1                 
 196    206      1                 
 194    203      1                 
 194    204      1                 
 194    205      1                 
 194    197      1                 
 194    189      1                 
 194    190      1                 
 194    187      1                 
 194    193      1                 
 198    199      1                 
 198    205      1                 
 198    208      1                 
 198    191      1                 
 198    192      1                 
 198    209      1                 
 198    210      1                 
 198    211      1                 
 199    203      1                 
 199    204      1                 
 199    212      1                 
 199    213      1                 
 199    191      1                 
 199    192      1                 
 199    206      1                 
 203    207      1                 
 203    212      1                 
 203    213      1                 
 204    205      1                 
 204    206      1                 
 205    214      1                 
 205    216      1                 
 205    215      1                 
 208    214      1                 
 208    216      1                 
 208    206      1                 
 208    217      1                 
 212    213      1                 
 212    216      1                 
 213    214      1                 
 213    215      1                 
 213    217      1                 
 216    215      1                 
 191    192      1                 
 191    195      1                 
 191    190      1                 
 191    184      1                 
 191    185      1                 
 191    193      1                 
 192    189      1                 
 192    187      1                 
 192    200      1                 
 192    201      1                 
 192    202      1                 
 195    189      1                 
 195    193      1                 
 197    190      1                 
 189    182      1                 
 189    183      1                 
 189    188      1                 
 190    184      1                 
 190    185      1                 
 187    182      1                 
 187    183      1                 
 187    180      1                 
 187    186      1                 
 187    193      1                 
 184    185      1                 
 184    183      1                 
 184    177      1                 
 184    178      1                 
 184    186      1                 
 184    188      1                 
 185    182      1                 
 185    180      1                 
 182    172      1                 
 182    176      1                 
 182    181      1                 
 182    188      1                 
 183    177      1                 
 183    178      1                 
 180    172      1                 
 180    176      1                 
 180    169      1                 
 180    179      1                 
 180    186      1                 
 177    178      1                 
 177    176      1                 
 177    163      1                 
 177    167      1                 
 177    179      1                 
 177    181      1                 
 178    172      1                 
 178    169      1                 
 172    160      1                 
 172    162      1                 
 172    170      1                 
 172    181      1                 
 176    163      1                 
 176    167      1                 
 169    160      1                 
 169    162      1                 
 169    168      1                 
 169    158      1                 
 169    179      1                 
 163    167      1                 
 163    162      1                 
 163    168      1                 
 163    155      1                 
 163    156      1                 
 163    170      1                 
 167    160      1                 
 167    171      1                 
 167    158      1                 
 160    171      1                 
 160    159      1                 
 160    153      1                 
 160    154      1                 
 160    170      1                 
 162    155      1                 
 162    156      1                 
 162    173      1                 
 162    174      1                 
 162    175      1                 
 168    158      1                 
 168    170      1                 
 158    161      1                 
 158    153      1                 
 158    154      1                 
 158    151      1                 
 158    157      1                 
 155    156      1                 
 155    159      1                 
 155    154      1                 
 155    148      1                 
 155    149      1                 
 155    157      1                 
 156    153      1                 
 156    151      1                 
 156    164      1                 
 156    165      1                 
 156    166      1                 
 159    153      1                 
 159    157      1                 
 161    154      1                 
 153    146      1                 
 153    147      1                 
 153    152      1                 
 154    148      1                 
 154    149      1                 
 151    146      1                 
 151    147      1                 
 151    150      1                 
 151    157      1                 
 151    218      1                 
 148    149      1                 
 148    147      1                 
 148    150      1                 
 148    152      1                 
 149    146      1                 
 149    218      1                 
 146    152      1                 
 150    152      1                 
 150    218      1                 
 179    181      1                 
 186    188      1                 
 215    217      1                 
 
