GRO made through POLYX
  218
    1PLYX   C1B    1  -0.714  -0.016  -0.022
    1PLYX   C1C    2  -0.661  -0.135  -0.069
    1PLYX   S19    3  -0.585   0.099   0.009
    1PLYX   C1A    4  -0.520  -0.134  -0.081
    1PLYX   H2E    5  -0.724  -0.221  -0.094
    1PLYX   C18    6  -0.462  -0.015  -0.042
    1PLYX   H2F    7  -0.462  -0.219  -0.118
    1PLYX   C16    8  -0.322   0.022  -0.040
    1PLYX   C17    9  -0.267   0.149  -0.038
    1PLYX   S12   10  -0.199  -0.101  -0.038
    1PLYX   C13   11  -0.124   0.147  -0.037
    1PLYX   H2G   12  -0.327   0.240  -0.041
    1PLYX   C01   13  -0.070   0.018  -0.038
    1PLYX   O14   14  -0.041   0.254  -0.036
    1PLYX   C00   15   0.070  -0.018  -0.038
    1PLYX   C15   16  -0.102   0.383  -0.035
    1PLYX   C02   17   0.124  -0.147  -0.037
    1PLYX   S03   18   0.199   0.101  -0.038
    1PLYX   H2H   19  -0.163   0.399  -0.126
    1PLYX   H2I   20  -0.165   0.397   0.055
    1PLYX   H2J   21  -0.019   0.455  -0.033
    1PLYX   C04   22   0.267  -0.149  -0.038
    1PLYX   O05   23   0.041  -0.254  -0.036
    1PLYX   C06   24   0.322  -0.022  -0.040
    1PLYX   H2K   25   0.327  -0.240  -0.041
    1PLYX   C07   26   0.102  -0.383  -0.035
    1PLYX   C08   27   0.462   0.015  -0.042
    1PLYX   H2M   28   0.163  -0.399  -0.126
    1PLYX   H2N   29   0.165  -0.397   0.055
    1PLYX   H2O   30   0.019  -0.455  -0.033
    1PLYX   C09   31   0.520   0.134  -0.081
    1PLYX   S0A   32   0.585  -0.099   0.009
    1PLYX   C0B   33   0.661   0.135  -0.069
    1PLYX   H2P   34   0.462   0.219  -0.118
    1PLYX   C0C   35   0.714   0.016  -0.022
    1PLYX   H2Q   36   0.724   0.221  -0.094
    1PLYX   C0D   37   0.852  -0.020   0.002
    1PLYX   C0E   38   0.904  -0.125   0.077
    1PLYX   S0F   39   0.982   0.073  -0.069
    1PLYX   C0G   40   1.046  -0.130   0.076
    1PLYX   H2R   41   0.840  -0.195   0.131
    1PLYX   C0H   42   1.105  -0.030   0.002
    1PLYX   H2S   43   1.103  -0.207   0.128
    1PLYX   C0I   44   1.245  -0.003  -0.020
    1PLYX   C0J   45   1.304   0.071  -0.122
    1PLYX   S0K   46   1.365  -0.067   0.089
    1PLYX   C0M   47   1.446   0.075  -0.111
    1PLYX   H2T   48   1.247   0.118  -0.201
    1PLYX   C0N   49   1.497   0.004  -0.003
    1PLYX   O0O   50   1.532   0.138  -0.196
    1PLYX   C0P   51   1.635  -0.013   0.034
    1PLYX   C0Q   52   1.475   0.209  -0.305
    1PLYX   C0R   53   1.687  -0.083   0.144
    1PLYX   S0S   54   1.767   0.057  -0.058
    1PLYX   H2U   55   1.419   0.142  -0.372
    1PLYX   H2V   56   1.408   0.290  -0.269
    1PLYX   H2W   57   1.559   0.254  -0.359
    1PLYX   C0T   58   1.829  -0.082   0.153
    1PLYX   O0U   59   1.600  -0.145   0.229
    1PLYX   C0V   60   1.887  -0.010   0.049
    1PLYX   H2X   61   1.886  -0.133   0.229
    1PLYX   C0W   62   1.657  -0.214   0.340
    1PLYX   C0X   63   2.029   0.013   0.024
    1PLYX   H2Y   64   1.723  -0.296   0.306
    1PLYX   H2Z   65   1.715  -0.146   0.404
    1PLYX   H30   66   1.573  -0.255   0.396
    1PLYX   C0Y   67   2.092   0.043  -0.095
    1PLYX   S0Z   68   2.145   0.005   0.155
    1PLYX   C10   69   2.233   0.058  -0.081
    1PLYX   H31   70   2.039   0.051  -0.190
    1PLYX   C11   71   2.276   0.040   0.048
    1PLYX   H32   72   2.300   0.081  -0.164
    1PLYX   H34   73   2.378   0.045   0.087
    1PLYX   C1B   74  -2.280  -0.012   0.002
    1PLYX   C1C   75  -2.227  -0.131  -0.045
    1PLYX   S19   76  -2.151   0.103   0.033
    1PLYX   C1A   77  -2.086  -0.130  -0.057
    1PLYX   H2E   78  -2.290  -0.217  -0.070
    1PLYX   C18   79  -2.028  -0.011  -0.018
    1PLYX   H2F   80  -2.028  -0.215  -0.094
    1PLYX   C16   81  -1.888   0.026  -0.016
    1PLYX   C17   82  -1.833   0.153  -0.014
    1PLYX   S12   83  -1.765  -0.097  -0.014
    1PLYX   C13   84  -1.690   0.151  -0.013
    1PLYX   H2G   85  -1.893   0.244  -0.017
    1PLYX   C01   86  -1.636   0.022  -0.014
    1PLYX   O14   87  -1.607   0.258  -0.012
    1PLYX   C00   88  -1.496  -0.014  -0.014
    1PLYX   C15   89  -1.668   0.387  -0.011
    1PLYX   C02   90  -1.442  -0.143  -0.013
    1PLYX   S03   91  -1.367   0.105  -0.014
    1PLYX   H2H   92  -1.729   0.403  -0.102
    1PLYX   H2I   93  -1.731   0.401   0.079
    1PLYX   H2J   94  -1.585   0.459  -0.009
    1PLYX   C04   95  -1.299  -0.145  -0.014
    1PLYX   O05   96  -1.525  -0.250  -0.012
    1PLYX   C06   97  -1.244  -0.018  -0.016
    1PLYX   H2K   98  -1.239  -0.236  -0.017
    1PLYX   C07   99  -1.464  -0.379  -0.011
    1PLYX   C08  100  -1.104   0.019  -0.018
    1PLYX   H2M  101  -1.403  -0.395  -0.102
    1PLYX   H2N  102  -1.401  -0.393   0.079
    1PLYX   H2O  103  -1.547  -0.451  -0.009
    1PLYX   C09  104  -1.046   0.138  -0.057
    1PLYX   S0A  105  -0.981  -0.095   0.033
    1PLYX   C0B  106  -0.905   0.139  -0.045
    1PLYX   H2P  107  -1.104   0.223  -0.094
    1PLYX   C0C  108  -0.852   0.020   0.002
    1PLYX   H2Q  109  -0.842   0.225  -0.070
    1PLYX   C1B  110  -3.846  -0.008   0.026
    1PLYX   C1C  111  -3.793  -0.127  -0.021
    1PLYX   S19  112  -3.717   0.107   0.057
    1PLYX   C1A  113  -3.652  -0.126  -0.033
    1PLYX   H2E  114  -3.856  -0.213  -0.046
    1PLYX   C18  115  -3.594  -0.007   0.006
    1PLYX   H2F  116  -3.594  -0.211  -0.070
    1PLYX   C16  117  -3.454   0.030   0.008
    1PLYX   C17  118  -3.399   0.157   0.010
    1PLYX   S12  119  -3.331  -0.093   0.010
    1PLYX   C13  120  -3.256   0.155   0.011
    1PLYX   H2G  121  -3.459   0.248   0.007
    1PLYX   C01  122  -3.202   0.026   0.010
    1PLYX   O14  123  -3.173   0.262   0.012
    1PLYX   C00  124  -3.062  -0.010   0.010
    1PLYX   C15  125  -3.234   0.391   0.013
    1PLYX   C02  126  -3.008  -0.139   0.011
    1PLYX   S03  127  -2.933   0.109   0.010
    1PLYX   H2H  128  -3.295   0.407  -0.078
    1PLYX   H2I  129  -3.297   0.405   0.103
    1PLYX   H2J  130  -3.151   0.463   0.015
    1PLYX   C04  131  -2.865  -0.141   0.010
    1PLYX   O05  132  -3.091  -0.246   0.012
    1PLYX   C06  133  -2.810  -0.014   0.008
    1PLYX   H2K  134  -2.805  -0.232   0.007
    1PLYX   C07  135  -3.030  -0.375   0.013
    1PLYX   C08  136  -2.670   0.023   0.006
    1PLYX   H2M  137  -2.969  -0.391  -0.078
    1PLYX   H2N  138  -2.967  -0.389   0.103
    1PLYX   H2O  139  -3.113  -0.447   0.015
    1PLYX   C09  140  -2.612   0.142  -0.033
    1PLYX   S0A  141  -2.547  -0.091   0.057
    1PLYX   C0B  142  -2.471   0.143  -0.021
    1PLYX   H2P  143  -2.670   0.227  -0.070
    1PLYX   C0C  144  -2.418   0.024   0.026
    1PLYX   H2Q  145  -2.408   0.229  -0.046
    1PLYX   C20  146  -6.974  -0.028   0.120
    1PLYX   C21  147  -6.931  -0.046  -0.009
    1PLYX   S1Y  148  -6.843   0.007   0.227
    1PLYX   C1Z  149  -6.790  -0.031  -0.023
    1PLYX   H22  150  -6.998  -0.069  -0.092
    1PLYX   C1X  151  -6.727  -0.001   0.096
    1PLYX   H23  152  -6.737  -0.039  -0.118
    1PLYX   C1V  153  -6.585   0.022   0.121
    1PLYX   C1W  154  -6.527   0.094   0.225
    1PLYX   S1R  155  -6.465  -0.045   0.014
    1PLYX   C1S  156  -6.385   0.095   0.216
    1PLYX   H24  157  -6.584   0.145   0.301
    1PLYX   C1Q  158  -6.333   0.025   0.106
    1PLYX   O1T  159  -6.298   0.157   0.301
    1PLYX   C1M  160  -6.195   0.008   0.069
    1PLYX   C1U  161  -6.355   0.226   0.412
    1PLYX   C1N  162  -6.144  -0.063  -0.039
    1PLYX   S1J  163  -6.063   0.079   0.161
    1PLYX   H25  164  -6.421   0.308   0.378
    1PLYX   H26  165  -6.413   0.158   0.476
    1PLYX   H27  166  -6.271   0.267   0.468
    1PLYX   C1K  167  -6.002  -0.059  -0.050
    1PLYX   O1O  168  -6.230  -0.126  -0.124
    1PLYX   C1I  169  -5.943   0.015   0.052
    1PLYX   H28  170  -5.945  -0.106  -0.129
    1PLYX   C1P  171  -6.173  -0.197  -0.233
    1PLYX   C1G  172  -5.803   0.042   0.074
    1PLYX   H29  173  -6.117  -0.130  -0.300
    1PLYX   H2A  174  -6.106  -0.278  -0.197
    1PLYX   H2B  175  -6.257  -0.242  -0.287
    1PLYX   C1H  176  -5.744   0.142   0.148
    1PLYX   S1E  177  -5.680  -0.061   0.003
    1PLYX   C1F  178  -5.602   0.137   0.149
    1PLYX   H2C  179  -5.801   0.219   0.200
    1PLYX   C1D  180  -5.550   0.032   0.074
    1PLYX   H2D  181  -5.538   0.207   0.203
    1PLYX   C1B  182  -5.412  -0.004   0.050
    1PLYX   C1C  183  -5.359  -0.123   0.003
    1PLYX   S19  184  -5.283   0.111   0.081
    1PLYX   C1A  185  -5.218  -0.122  -0.009
    1PLYX   H2E  186  -5.422  -0.209  -0.022
    1PLYX   C18  187  -5.160  -0.003   0.030
    1PLYX   H2F  188  -5.160  -0.207  -0.046
    1PLYX   C16  189  -5.020   0.034   0.032
    1PLYX   C17  190  -4.965   0.161   0.034
    1PLYX   S12  191  -4.897  -0.089   0.034
    1PLYX   C13  192  -4.822   0.159   0.035
    1PLYX   H2G  193  -5.025   0.252   0.031
    1PLYX   C01  194  -4.768   0.030   0.034
    1PLYX   O14  195  -4.739   0.266   0.036
    1PLYX   C00  196  -4.628  -0.006   0.034
    1PLYX   C15  197  -4.800   0.395   0.037
    1PLYX   C02  198  -4.574  -0.135   0.035
    1PLYX   S03  199  -4.499   0.113   0.034
    1PLYX   H2H  200  -4.861   0.411  -0.054
    1PLYX   H2I  201  -4.863   0.409   0.127
    1PLYX   H2J  202  -4.717   0.467   0.039
    1PLYX   C04  203  -4.431  -0.137   0.034
    1PLYX   O05  204  -4.657  -0.242   0.036
    1PLYX   C06  205  -4.376  -0.010   0.032
    1PLYX   H2K  206  -4.371  -0.228   0.031
    1PLYX   C07  207  -4.596  -0.371   0.037
    1PLYX   C08  208  -4.236   0.027   0.030
    1PLYX   H2M  209  -4.535  -0.387  -0.054
    1PLYX   H2N  210  -4.533  -0.385   0.127
    1PLYX   H2O  211  -4.679  -0.443   0.039
    1PLYX   C09  212  -4.178   0.146  -0.009
    1PLYX   S0A  213  -4.113  -0.087   0.081
    1PLYX   C0B  214  -4.037   0.147   0.003
    1PLYX   H2P  215  -4.236   0.231  -0.046
    1PLYX   C0C  216  -3.984   0.028   0.050
    1PLYX   H2Q  217  -3.974   0.233  -0.022
    1PLYX   H33  218  -7.076  -0.033   0.159
   9.45400   0.92200   0.84800
