LIGPARGEN GENERATED GRO FILE
    6
    1ACN    H1     1  -0.016   0.098   0.121
    1ACN    C1     2   0.091   0.098   0.121
    1ACN    H2     3   0.126  -0.002   0.121
    1ACN    H3     4   0.126   0.149   0.033
    1ACN    C2     5   0.142   0.171   0.247
    1ACN    N1     6   0.181   0.225   0.340
   0.21700   0.24700   0.32700
