Polymer Block
  152
    1BOBX   C20    1  -2.276  -0.040   0.048
    1BOBX   C21    2  -2.233  -0.058  -0.081
    1BOBX   S1Y    3  -2.145  -0.005   0.155
    1BOBX   C1Z    4  -2.092  -0.043  -0.095
    1BOBX   H22    5  -2.300  -0.081  -0.164
    1BOBX   C1X    6  -2.029  -0.013   0.024
    1BOBX   H23    7  -2.039  -0.051  -0.190
    1BOBX   C1V    8  -1.887   0.010   0.049
    1BOBX   C1W    9  -1.829   0.082   0.153
    1BOBX   S1R   10  -1.767  -0.057  -0.058
    1BOBX   C1S   11  -1.687   0.083   0.144
    1BOBX   H24   12  -1.886   0.133   0.229
    1BOBX   C1Q   13  -1.635   0.013   0.034
    1BOBX   O1T   14  -1.600   0.145   0.229
    1BOBX   C1M   15  -1.497  -0.004  -0.003
    1BOBX   C1U   16  -1.657   0.214   0.340
    1BOBX   C1N   17  -1.446  -0.075  -0.111
    1BOBX   S1J   18  -1.365   0.067   0.089
    1BOBX   H25   19  -1.723   0.296   0.306
    1BOBX   H26   20  -1.715   0.146   0.404
    1BOBX   H27   21  -1.573   0.255   0.396
    1BOBX   C1K   22  -1.304  -0.071  -0.122
    1BOBX   O1O   23  -1.532  -0.138  -0.196
    1BOBX   C1I   24  -1.245   0.003  -0.020
    1BOBX   H28   25  -1.247  -0.118  -0.201
    1BOBX   C1P   26  -1.475  -0.209  -0.305
    1BOBX   C1G   27  -1.105   0.030   0.002
    1BOBX   H29   28  -1.419  -0.142  -0.372
    1BOBX   H2A   29  -1.408  -0.290  -0.269
    1BOBX   H2B   30  -1.559  -0.254  -0.359
    1BOBX   C1H   31  -1.046   0.130   0.076
    1BOBX   S1E   32  -0.982  -0.073  -0.069
    1BOBX   C1F   33  -0.904   0.125   0.077
    1BOBX   H2C   34  -1.103   0.207   0.128
    1BOBX   C1D   35  -0.852   0.020   0.002
    1BOBX   H2D   36  -0.840   0.195   0.131
    1BOBX   C1B   37  -0.714  -0.016  -0.022
    1BOBX   C1C   38  -0.661  -0.135  -0.069
    1BOBX   S19   39  -0.585   0.099   0.009
    1BOBX   C1A   40  -0.520  -0.134  -0.081
    1BOBX   H2E   41  -0.724  -0.221  -0.094
    1BOBX   C18   42  -0.462  -0.015  -0.042
    1BOBX   H2F   43  -0.462  -0.219  -0.118
    1BOBX   C16   44  -0.322   0.022  -0.040
    1BOBX   C17   45  -0.267   0.149  -0.038
    1BOBX   S12   46  -0.199  -0.101  -0.038
    1BOBX   C13   47  -0.124   0.147  -0.037
    1BOBX   H2G   48  -0.327   0.240  -0.041
    1BOBX   C01   49  -0.070   0.018  -0.038
    1BOBX   O14   50  -0.041   0.254  -0.036
    1BOBX   C00   51   0.070  -0.018  -0.038
    1BOBX   C15   52  -0.102   0.383  -0.035
    1BOBX   C02   53   0.124  -0.147  -0.037
    1BOBX   S03   54   0.199   0.101  -0.038
    1BOBX   H2H   55  -0.163   0.399  -0.126
    1BOBX   H2I   56  -0.165   0.397   0.055
    1BOBX   H2J   57  -0.019   0.455  -0.033
    1BOBX   C04   58   0.267  -0.149  -0.038
    1BOBX   O05   59   0.041  -0.254  -0.036
    1BOBX   C06   60   0.322  -0.022  -0.040
    1BOBX   H2K   61   0.327  -0.240  -0.041
    1BOBX   C08   62   0.462   0.015  -0.042
    1BOBX   C09   63   0.520   0.134  -0.081
    1BOBX   S0A   64   0.585  -0.099   0.009
    1BOBX   C0B   65   0.661   0.135  -0.069
    1BOBX   H2P   66   0.462   0.219  -0.118
    1BOBX   C0C   67   0.714   0.016  -0.022
    1BOBX   H2Q   68   0.724   0.221  -0.094
    1BOBX   C0D   69   0.852  -0.020   0.002
    1BOBX   C0E   70   0.904  -0.125   0.077
    1BOBX   S0F   71   0.982   0.073  -0.069
    1BOBX   C0G   72   1.046  -0.130   0.076
    1BOBX   H2R   73   0.840  -0.195   0.131
    1BOBX   C0H   74   1.105  -0.030   0.002
    1BOBX   H2S   75   1.103  -0.207   0.128
    1BOBX   C0I   76   1.245  -0.003  -0.020
    1BOBX   C0J   77   1.304   0.071  -0.122
    1BOBX   S0K   78   1.365  -0.067   0.089
    1BOBX   C0M   79   1.446   0.075  -0.111
    1BOBX   H2T   80   1.247   0.118  -0.201
    1BOBX   C0N   81   1.497   0.004  -0.003
    1BOBX   O0O   82   1.532   0.138  -0.196
    1BOBX   C0P   83   1.635  -0.013   0.034
    1BOBX   C0Q   84   1.475   0.209  -0.305
    1BOBX   C0R   85   1.687  -0.083   0.144
    1BOBX   S0S   86   1.767   0.057  -0.058
    1BOBX   H2U   87   1.419   0.142  -0.372
    1BOBX   H2V   88   1.408   0.290  -0.269
    1BOBX   H2W   89   1.559   0.254  -0.359
    1BOBX   C0T   90   1.829  -0.082   0.153
    1BOBX   O0U   91   1.600  -0.145   0.229
    1BOBX   C0V   92   1.887  -0.010   0.049
    1BOBX   H2X   93   1.886  -0.133   0.229
    1BOBX   C0X   94   2.029   0.013   0.024
    1BOBX   C0Y   95   2.092   0.043  -0.095
    1BOBX   S0Z   96   2.145   0.005   0.155
    1BOBX   C10   97   2.233   0.058  -0.081
    1BOBX   H31   98   2.039   0.051  -0.190
    1BOBX   C11   99   2.276   0.040   0.048
    1BOBX   H32  100   2.300   0.081  -0.164
    1BOBX   H33  101  -2.378  -0.045   0.087
    1BOBX   H34  102   2.378   0.045   0.087
    1BOBX   C0I  103   1.826  -0.079   0.504
    1BOBX   C0N  104   1.844  -0.297   0.722
    1BOBX   H0O  105   2.027  -0.032   0.433
    1BOBX   H0P  106   1.731   0.101   0.588
    1BOBX   O0Q  107   2.001  -0.200   0.941
    1BOBX   H0R  108   1.935  -0.473   0.642
    1BOBX   H0S  109   1.647  -0.344   0.793
    1BOBX   C0T  110   2.018  -0.401   1.143
    1BOBX   C0U  111   2.187  -0.296   1.378
    1BOBX   H0V  112   2.111  -0.576   1.060
    1BOBX   H0W  113   1.822  -0.449   1.212
    1BOBX   O0X  114   2.204  -0.497   1.580
    1BOBX   H0Y  115   2.383  -0.248   1.310
    1BOBX   H0Z  116   2.094  -0.121   1.461
    1BOBX   C10  117   2.363  -0.400   1.798
    1BOBX   C11  118   2.379  -0.618   2.017
    1BOBX   H12  119   2.559  -0.353   1.730
    1BOBX   H13  120   2.270  -0.226   1.881
    1BOBX   O14  121   2.538  -0.521   2.235
    1BOBX   H15  122   2.471  -0.794   1.935
    1BOBX   H16  123   2.183  -0.665   2.086
    1BOBX   C17  124   2.555  -0.722   2.437
    1BOBX   H18  125   2.671  -0.649   2.600
    1BOBX   H19  126   2.648  -0.897   2.354
    1BOBX   H1A  127   2.358  -0.772   2.506
    1BOBX   C0I  128   0.008  -0.505   0.156
    1BOBX   C0N  129  -0.248  -0.674   0.126
    1BOBX   H0O  130   0.182  -0.629   0.108
    1BOBX   H0P  131   0.023  -0.430   0.362
    1BOBX   O0Q  132  -0.238  -0.895   0.309
    1BOBX   H0R  133  -0.265  -0.748  -0.073
    1BOBX   H0S  134  -0.420  -0.554   0.173
    1BOBX   C0T  135  -0.475  -1.052   0.282
    1BOBX   C0U  136  -0.464  -1.290   0.478
    1BOBX   H0V  137  -0.489  -1.125   0.081
    1BOBX   H0W  138  -0.645  -0.931   0.326
    1BOBX   O0X  139  -0.701  -1.447   0.450
    1BOBX   H0Y  140  -0.294  -1.411   0.433
    1BOBX   H0Z  141  -0.450  -1.217   0.679
    1BOBX   C10  142  -0.690  -1.669   0.631
    1BOBX   C11  143  -0.947  -1.837   0.603
    1BOBX   H12  144  -0.520  -1.790   0.587
    1BOBX   H13  145  -0.676  -1.596   0.832
    1BOBX   O14  146  -0.936  -2.059   0.784
    1BOBX   H15  147  -0.962  -1.910   0.401
    1BOBX   H16  148  -1.117  -1.716   0.648
    1BOBX   C17  149  -1.173  -2.216   0.757
    1BOBX   H18  150  -1.165  -2.379   0.893
    1BOBX   H19  151  -1.186  -2.289   0.556
    1BOBX   H1A  152  -1.344  -2.095   0.800
   0.00000   0.00000   0.00000
