; 
; 
; 
;              An extender, a parser, a website -- are you getting it?????
;                                  ITP made through BOBCAT
; 
; 
; 
 
 
[ moleculetype ]
; Name               nrexcl

   UNK         3                 
 
[ atoms ]
; nr      type  resnr   residue    atom   cgnr     charge       mass

    1       opls_870      1         UNK        C20         1       -0.364927   12.0110              
    2       opls_871      1         UNK        C21         1       -0.109687   12.0110              
    3       opls_868      1         UNK        S1Y         1       0.281702   32.0670              
    4       opls_869      1         UNK        C1Z         1       -0.136647   12.0110              
    5       opls_872      1         UNK        H22         1       0.152956    1.0080              
    6       opls_867      1         UNK        C1X         1       -0.188267   12.0110              
    7       opls_873      1         UNK        H23         1       0.161989    1.0080              
    8       opls_865      1         UNK        C1V         1       -0.178020   12.0110              
    9       opls_866      1         UNK        C1W         1       -0.190147   12.0110              
    10      opls_861      1         UNK        S1R         1       0.328690   32.0670              
    11      opls_862      1         UNK        C1S         1       0.332897   12.0110              
    12      opls_874      1         UNK        H24         1       0.163135    1.0080              
    13      opls_860      1         UNK        C1Q         1       -0.216402   12.0110              
    14      opls_863      1         UNK        O1T         1       -0.467352   15.9990              
    15      opls_856      1         UNK        C1M         1       -0.213307   12.0110              
    16      opls_864      1         UNK        C1U         1       -0.272655   12.0110              
    17      opls_857      1         UNK        C1N         1       0.332980   12.0110              
    18      opls_854      1         UNK        S1J         1       0.330003   32.0670              
    19      opls_875      1         UNK        H25         1       0.168506    1.0080              
    20      opls_876      1         UNK        H26         1       0.169110    1.0080              
    21      opls_877      1         UNK        H27         1       0.186748    1.0080              
    22      opls_855      1         UNK        C1K         1       -0.192208   12.0110              
    23      opls_858      1         UNK        O1O         1       -0.467556   15.9990              
    24      opls_853      1         UNK        C1I         1       -0.188106   12.0110              
    25      opls_878      1         UNK        H28         1       0.164546    1.0080              
    26      opls_859      1         UNK        C1P         1       -0.272784   12.0110              
    27      opls_851      1         UNK        C1G         1       -0.170432   12.0110              
    28      opls_879      1         UNK        H29         1       0.168712    1.0080              
    29      opls_880      1         UNK        H2A         1       0.168784    1.0080              
    30      opls_881      1         UNK        H2B         1       0.186878    1.0080              
    31      opls_852      1         UNK        C1H         1       -0.149320   12.0110              
    32      opls_849      1         UNK        S1E         1       0.290545   32.0670              
    33      opls_850      1         UNK        C1F         1       -0.151315   12.0110              
    34      opls_882      1         UNK        H2C         1       0.164169    1.0080              
    35      opls_848      1         UNK        C1D         1       -0.168435   12.0110              
    36      opls_883      1         UNK        H2D         1       0.162906    1.0080              
    37      opls_846      1         UNK        C1B         1       -0.168083   12.0110              
    38      opls_847      1         UNK        C1C         1       -0.151428   12.0110              
    39      opls_844      1         UNK        S19         1       0.290780   32.0670              
    40      opls_845      1         UNK        C1A         1       -0.149194   12.0110              
    41      opls_884      1         UNK        H2E         1       0.163081    1.0080              
    42      opls_843      1         UNK        C18         1       -0.170705   12.0110              
    43      opls_885      1         UNK        H2F         1       0.164237    1.0080              
    44      opls_841      1         UNK        C16         1       -0.187519   12.0110              
    45      opls_842      1         UNK        C17         1       -0.192345   12.0110              
    46      opls_837      1         UNK        S12         1       0.330618   32.0670              
    47      opls_838      1         UNK        C13         1       0.333657   12.0110              
    48      opls_886      1         UNK        H2G         1       0.164906    1.0080              
    49      opls_801      1         UNK        C01         1       -0.214175   12.0110              
    50      opls_839      1         UNK        O14         1       -0.467562   15.9990              
    51      opls_800      1         UNK        C00         1       -0.214175   12.0110              
    52      opls_840      1         UNK        C15         1       -0.273063   12.0110              
    53      opls_802      1         UNK        C02         1       0.333657   12.0110              
    54      opls_803      1         UNK        S03         1       0.330618   32.0670              
    55      opls_887      1         UNK        H2H         1       0.169106    1.0080              
    56      opls_888      1         UNK        H2I         1       0.169228    1.0080              
    57      opls_889      1         UNK        H2J         1       0.187190    1.0080              
    58      opls_804      1         UNK        C04         1       -0.192345   12.0110              
    59      opls_805      1         UNK        O05         1       -0.467562   15.9990              
    60      opls_806      1         UNK        C06         1       -0.187519   12.0110              
    61      opls_890      1         UNK        H2K         1       0.164906    1.0080              
    62      opls_808      1         UNK        C08         1       -0.170705   12.0110              
    63      opls_809      1         UNK        C09         1       -0.149194   12.0110              
    64      opls_810      1         UNK        S0A         1       0.290780   32.0670              
    65      opls_811      1         UNK        C0B         1       -0.151429   12.0110              
    66      opls_894      1         UNK        H2P         1       0.164237    1.0080              
    67      opls_812      1         UNK        C0C         1       -0.168082   12.0110              
    68      opls_895      1         UNK        H2Q         1       0.163081    1.0080              
    69      opls_813      1         UNK        C0D         1       -0.168434   12.0110              
    70      opls_814      1         UNK        C0E         1       -0.151315   12.0110              
    71      opls_815      1         UNK        S0F         1       0.290545   32.0670              
    72      opls_816      1         UNK        C0G         1       -0.149320   12.0110              
    73      opls_896      1         UNK        H2R         1       0.162906    1.0080              
    74      opls_817      1         UNK        C0H         1       -0.170432   12.0110              
    75      opls_897      1         UNK        H2S         1       0.164169    1.0080              
    76      opls_818      1         UNK        C0I         1       -0.188106   12.0110              
    77      opls_819      1         UNK        C0J         1       -0.192207   12.0110              
    78      opls_820      1         UNK        S0K         1       0.330003   32.0670              
    79      opls_821      1         UNK        C0M         1       0.332980   12.0110              
    80      opls_898      1         UNK        H2T         1       0.164546    1.0080              
    81      opls_822      1         UNK        C0N         1       -0.213307   12.0110              
    82      opls_823      1         UNK        O0O         1       -0.467556   15.9990              
    83      opls_824      1         UNK        C0P         1       -0.216402   12.0110              
    84      opls_825      1         UNK        C0Q         1       -0.272784   12.0110              
    85      opls_826      1         UNK        C0R         1       0.332897   12.0110              
    86      opls_827      1         UNK        S0S         1       0.328690   32.0670              
    87      opls_899      1         UNK        H2U         1       0.168712    1.0080              
    88      opls_9500      1         UNK        H2V         1       0.168784    1.0080              
    89      opls_9501      1         UNK        H2W         1       0.186878    1.0080              
    90      opls_828      1         UNK        C0T         1       -0.190147   12.0110              
    91      opls_829      1         UNK        O0U         1       -0.467352   15.9990              
    92      opls_830      1         UNK        C0V         1       -0.178020   12.0110              
    93      opls_9502      1         UNK        H2X         1       0.163135    1.0080              
    94      opls_832      1         UNK        C0X         1       -0.188267   12.0110              
    95      opls_833      1         UNK        C0Y         1       -0.136648   12.0110              
    96      opls_834      1         UNK        S0Z         1       0.281702   32.0670              
    97      opls_835      1         UNK        C10         1       -0.109687   12.0110              
    98      opls_9506      1         UNK        H31         1       0.161989    1.0080              
    99      opls_836      1         UNK        C11         1       -0.364927   12.0110              
   100      opls_9507      1         UNK        H32         1       0.152956    1.0080              
   101      opls_9508      1         UNK        H33         1       0.183580    1.0080              
   102      opls_9509      1         UNK        H34         1       0.183580    1.0080              
   103      opls_818      1          H         C0I         1        0.0061    12.0110   
   104      opls_822      1          H         C0N         1        0.0071    12.0110   
   105      opls_823      1          H         H0O         1        0.1092     1.0080   
   106      opls_824      1          H         H0P         1        0.1092     1.0080   
   107      opls_825      1          H         O0Q         1       -0.3841    15.9990   
   108      opls_826      1          H         H0R         1        0.0955     1.0080   
   109      opls_827      1          H         H0S         1        0.0955     1.0080   
   110      opls_828      1          H         C0T         1        0.0086    12.0110   
   111      opls_829      1          H         C0U         1        0.0098    12.0110   
   112      opls_830      1          H         H0V         1        0.0924     1.0080   
   113      opls_831      1          H         H0W         1        0.0924     1.0080   
   114      opls_832      1          H         O0X         2       -0.3853    15.9990   
   115      opls_833      1          H         H0Y         2        0.0916     1.0080   
   116      opls_834      1          H         H0Z         2        0.0916     1.0080   
   117      opls_835      1          H         C10         2        0.0086    12.0110   
   118      opls_836      1          H         C11         2        0.0034    12.0110   
   119      opls_837      1          H         H12         2        0.0914     1.0080   
   120      opls_838      1          H         H13         2        0.0914     1.0080   
   121      opls_839      1          H         O14         2       -0.3816    15.9990   
   122      opls_840      1          H         H15         2        0.0891     1.0080   
   123      opls_841      1          H         H16         2        0.0891     1.0080   
   124      opls_842      1          H         C17         2       -0.0440    12.0110   
   125      opls_843      1          H         H18         2        0.0831     1.0080   
   126      opls_844      1          H         H19         2        0.0831     1.0080   
   127      opls_845      1          H         H1A         2        0.0831     1.0080   
   128      opls_818      1          H         C0I         1        0.0061    12.0110   
   129      opls_822      1          H         C0N         1        0.0071    12.0110   
   130      opls_823      1          H         H0O         1        0.1092     1.0080   
   131      opls_824      1          H         H0P         1        0.1092     1.0080   
   132      opls_825      1          H         O0Q         1       -0.3841    15.9990   
   133      opls_826      1          H         H0R         1        0.0955     1.0080   
   134      opls_827      1          H         H0S         1        0.0955     1.0080   
   135      opls_828      1          H         C0T         1        0.0086    12.0110   
   136      opls_829      1          H         C0U         1        0.0098    12.0110   
   137      opls_830      1          H         H0V         1        0.0924     1.0080   
   138      opls_831      1          H         H0W         1        0.0924     1.0080   
   139      opls_832      1          H         O0X         2       -0.3853    15.9990   
   140      opls_833      1          H         H0Y         2        0.0916     1.0080   
   141      opls_834      1          H         H0Z         2        0.0916     1.0080   
   142      opls_835      1          H         C10         2        0.0086    12.0110   
   143      opls_836      1          H         C11         2        0.0034    12.0110   
   144      opls_837      1          H         H12         2        0.0914     1.0080   
   145      opls_838      1          H         H13         2        0.0914     1.0080   
   146      opls_839      1          H         O14         2       -0.3816    15.9990   
   147      opls_840      1          H         H15         2        0.0891     1.0080   
   148      opls_841      1          H         H16         2        0.0891     1.0080   
   149      opls_842      1          H         C17         2       -0.0440    12.0110   
   150      opls_843      1          H         H18         2        0.0831     1.0080   
   151      opls_844      1          H         H19         2        0.0831     1.0080   
   152      opls_845      1          H         H1A         2        0.0831     1.0080   
 
[ bonds ]
;  ai    aj   funct      c0       c1

 49    51      1       0.1424    392459.200             
 53    51      1       0.1424    392459.200             
 54    51      1       0.1760    209200.000             
 58    53      1       0.1424    392459.200             
 59    53      1       0.1364    376560.000             
 60    58      1       0.1424    392459.200             
 62    60      1       0.1424    392459.200             
 63    62      1       0.1424    392459.200             
 64    62      1       0.1760    209200.000             
 65    63      1       0.1424    392459.200             
 67    65      1       0.1424    392459.200             
 69    67      1       0.1424    392459.200             
 70    69      1       0.1424    392459.200             
 71    69      1       0.1760    209200.000             
 72    70      1       0.1424    392459.200             
 74    72      1       0.1424    392459.200             
 76    74      1       0.1424    392459.200             
 77    76      1       0.1424    392459.200             
 78    76      1       0.1760    209200.000             
 79    77      1       0.1424    392459.200             
 81    79      1       0.1424    392459.200             
 82    79      1       0.1364    376560.000             
 83    81      1       0.1424    392459.200             
 84    82      1       0.1410    267776.000             
 85    83      1       0.1424    392459.200             
 86    83      1       0.1760    209200.000             
 90    85      1       0.1424    392459.200             
 91    85      1       0.1364    376560.000             
 92    90      1       0.1424    392459.200             
 94    92      1       0.1424    392459.200             
 95    94      1       0.1424    392459.200             
 96    94      1       0.1760    209200.000             
 97    95      1       0.1424    392459.200             
 99    96      1       0.1740    209200.000             
 46    49      1       0.1760    209200.000             
 47    49      1       0.1424    392459.200             
 50    47      1       0.1364    376560.000             
 52    50      1       0.1410    267776.000             
 44    46      1       0.1760    209200.000             
 45    44      1       0.1424    392459.200             
 42    44      1       0.1424    392459.200             
 39    42      1       0.1760    209200.000             
 40    42      1       0.1424    392459.200             
 37    39      1       0.1760    209200.000             
 38    37      1       0.1424    392459.200             
 35    37      1       0.1424    392459.200             
 32    35      1       0.1760    209200.000             
 33    35      1       0.1424    392459.200             
 27    32      1       0.1760    209200.000             
 31    27      1       0.1424    392459.200             
 24    27      1       0.1424    392459.200             
 18    24      1       0.1760    209200.000             
 22    24      1       0.1424    392459.200             
 15    18      1       0.1760    209200.000             
 17    15      1       0.1424    392459.200             
 23    17      1       0.1364    376560.000             
 26    23      1       0.1410    267776.000             
 13    15      1       0.1424    392459.200             
 10    13      1       0.1760    209200.000             
 11    13      1       0.1424    392459.200             
 14    11      1       0.1364    376560.000             
 16    14      1       0.1410    267776.000             
 8    10       1       0.1760    209200.000             
  9    8       1       0.1424    392459.200             
  6    8       1       0.1424    392459.200             
  3    6       1       0.1760    209200.000             
  4    6       1       0.1424    392459.200             
  1    3       1       0.1740    209200.000             
  2    1       1       0.1380    456892.800             
  5    2       1       0.1080    307105.600             
  7    4       1       0.1080    307105.600             
 12    9       1       0.1080    307105.600             
 19    16      1       0.1090    284512.000             
 20    16      1       0.1090    284512.000             
 21    16      1       0.1090    284512.000             
 25    22      1       0.1080    307105.600             
 28    26      1       0.1090    284512.000             
 29    26      1       0.1090    284512.000             
 30    26      1       0.1090    284512.000             
 34    31      1       0.1080    307105.600             
 36    33      1       0.1080    307105.600             
 41    38      1       0.1080    307105.600             
 43    40      1       0.1080    307105.600             
 48    45      1       0.1080    307105.600             
 55    52      1       0.1090    284512.000             
 56    52      1       0.1090    284512.000             
 57    52      1       0.1090    284512.000             
 61    58      1       0.1080    307105.600             
 66    63      1       0.1080    307105.600             
 68    65      1       0.1080    307105.600             
 73    70      1       0.1080    307105.600             
 75    72      1       0.1080    307105.600             
 80    77      1       0.1080    307105.600             
 87    84      1       0.1090    284512.000             
 88    84      1       0.1090    284512.000             
 89    84      1       0.1090    284512.000             
 93    90      1       0.1080    307105.600             
 98    95      1       0.1080    307105.600             
 100    97      1       0.1080    307105.600             
 101    1      1       0.1080    307105.600             
 102    99      1       0.1080    307105.600             
 60    54      1       0.1760    209200.000             
 67    64      1       0.1760    209200.000             
 74    71      1       0.1760    209200.000             
 81    78      1       0.1760    209200.000             
 92    86      1       0.1760    209200.000             
 99    97      1       0.1380    456892.800             
 45    47      1       0.1424    392459.200             
 38    40      1       0.1424    392459.200             
 31    33      1       0.1424    392459.200             
 17    22      1       0.1424    392459.200             
 9    11       1       0.1424    392459.200             
  2    4       1       0.1424    392459.200             
 91    85      1       0.1364    376560.000  
 103    91      1       0.1410    267776.000  
 104    103      1       0.1529    224262.400  
 105    103      1       0.1090    284512.000  
 106    103      1       0.1090    284512.000  
 107    104      1       0.1410    267776.000  
 108    104      1       0.1090    284512.000  
 109    104      1       0.1090    284512.000  
 110    107      1       0.1410    267776.000  
 111    110      1       0.1529    224262.400  
 112    110      1       0.1090    284512.000  
 113    110      1       0.1090    284512.000  
 114    111      1       0.1410    267776.000  
 115    111      1       0.1090    284512.000  
 116    111      1       0.1090    284512.000  
 117    114      1       0.1410    267776.000  
 118    117      1       0.1529    224262.400  
 119    117      1       0.1090    284512.000  
 120    117      1       0.1090    284512.000  
 121    118      1       0.1410    267776.000  
 122    118      1       0.1090    284512.000  
 123    118      1       0.1090    284512.000  
 124    121      1       0.1410    267776.000  
 125    124      1       0.1090    284512.000  
 126    124      1       0.1090    284512.000  
 127    124      1       0.1090    284512.000  
 59    53      1       0.1364    376560.000  
 128    59      1       0.1410    267776.000  
 129    128      1       0.1529    224262.400  
 130    128      1       0.1090    284512.000  
 131    128      1       0.1090    284512.000  
 132    129      1       0.1410    267776.000  
 133    129      1       0.1090    284512.000  
 134    129      1       0.1090    284512.000  
 135    132      1       0.1410    267776.000  
 136    135      1       0.1529    224262.400  
 137    135      1       0.1090    284512.000  
 138    135      1       0.1090    284512.000  
 139    136      1       0.1410    267776.000  
 140    136      1       0.1090    284512.000  
 141    136      1       0.1090    284512.000  
 142    139      1       0.1410    267776.000  
 143    142      1       0.1529    224262.400  
 144    142      1       0.1090    284512.000  
 145    142      1       0.1090    284512.000  
 146    143      1       0.1410    267776.000  
 147    143      1       0.1090    284512.000  
 148    143      1       0.1090    284512.000  
 149    146      1       0.1410    267776.000  
 150    149      1       0.1090    284512.000  
 151    149      1       0.1090    284512.000  
 152    149      1       0.1090    284512.000  
 
[ angles ]
;  ai    aj   ak  funct      c0       c1 

 53    51    49      1       120.000    527.184             
 54    51    49      1       119.400    711.280             
 58    53    51      1       120.000    527.184             
 59    53    51      1       120.000    585.760             
 60    58    53      1       120.000    527.184             
 62    60    58      1       120.000    527.184             
 63    62    60      1       120.000    527.184             
 64    62    60      1       119.400    711.280             
 65    63    62      1       120.000    527.184             
 67    65    63      1       120.000    527.184             
 69    67    65      1       120.000    527.184             
 70    69    67      1       120.000    527.184             
 71    69    67      1       119.400    711.280             
 72    70    69      1       120.000    527.184             
 74    72    70      1       120.000    527.184             
 76    74    72      1       120.000    527.184             
 77    76    74      1       120.000    527.184             
 78    76    74      1       119.400    711.280             
 79    77    76      1       120.000    527.184             
 81    79    77      1       120.000    527.184             
 82    79    77      1       120.000    585.760             
 83    81    79      1       120.000    527.184             
 84    82    79      1       111.000    627.600             
 85    83    81      1       120.000    527.184             
 86    83    81      1       119.400    711.280             
 90    85    83      1       120.000    527.184             
 91    85    83      1       120.000    585.760             
 92    90    85      1       120.000    527.184             
 94    92    90      1       120.000    527.184             
 95    94    92      1       120.000    527.184             
 96    94    92      1       119.400    711.280             
 97    95    94      1       120.000    527.184             
 99    96    94      1       106.390    829.185             
 46    49    51      1       119.400    711.280             
 47    49    51      1       120.000    527.184             
 50    47    49      1       120.000    585.760             
 52    50    47      1       111.000    627.600             
 44    46    49      1       106.390    829.185             
 45    44    46      1       119.400    711.280             
 42    44    46      1       119.400    711.280             
 39    42    44      1       119.400    711.280             
 40    42    44      1       120.000    527.184             
 37    39    42      1       106.390    829.185             
 38    37    39      1       119.400    711.280             
 35    37    39      1       119.400    711.280             
 32    35    37      1       119.400    711.280             
 33    35    37      1       120.000    527.184             
 27    32    35      1       106.390    829.185             
 31    27    32      1       119.400    711.280             
 24    27    32      1       119.400    711.280             
 18    24    27      1       119.400    711.280             
 22    24    27      1       120.000    527.184             
 15    18    24      1       106.390    829.185             
 17    15    18      1       119.400    711.280             
 23    17    15      1       120.000    585.760             
 26    23    17      1       111.000    627.600             
 13    15    18      1       119.400    711.280             
 10    13    15      1       119.400    711.280             
 11    13    15      1       120.000    527.184             
 14    11    13      1       120.000    585.760             
 16    14    11      1       111.000    627.600             
 8    10    13      1       106.390    829.185             
 9    8    10      1       119.400    711.280             
 6    8    10      1       119.400    711.280             
 3    6    8      1       119.400    711.280             
 4    6    8      1       120.000    527.184             
 1    3    6      1       106.390    829.185             
 2    1    3      1       111.000    585.760             
 5    2    1      1       123.100    292.880             
 7    4    6      1       127.500    292.880             
 12    9    8      1       127.500    292.880             
 19    16    14      1       109.500    292.880             
 20    16    14      1       109.500    292.880             
 21    16    14      1       109.500    292.880             
 25    22    24      1       127.500    292.880             
 28    26    23      1       109.500    292.880             
 29    26    23      1       109.500    292.880             
 30    26    23      1       109.500    292.880             
 34    31    27      1       127.500    292.880             
 36    33    35      1       127.500    292.880             
 41    38    37      1       127.500    292.880             
 43    40    42      1       127.500    292.880             
 48    45    44      1       127.500    292.880             
 55    52    50      1       109.500    292.880             
 56    52    50      1       109.500    292.880             
 57    52    50      1       109.500    292.880             
 61    58    53      1       127.500    292.880             
 66    63    62      1       127.500    292.880             
 68    65    63      1       127.500    292.880             
 73    70    69      1       127.500    292.880             
 75    72    70      1       127.500    292.880             
 80    77    76      1       127.500    292.880             
 87    84    82      1       109.500    292.880             
 88    84    82      1       109.500    292.880             
 89    84    82      1       109.500    292.880             
 93    90    85      1       127.500    292.880             
 98    95    94      1       127.500    292.880             
 100    97    95      1       127.500    292.880             
 101    1    3      1       120.000    292.880             
 102    99    96      1       120.000    292.880             
 54    51    53      1       119.400    711.280             
 59    53    58      1       120.000    585.760             
 61    58    60      1       127.500    292.880             
 51    54    60      1       106.390    829.185             
 54    60    62      1       119.400    711.280             
 64    62    63      1       119.400    711.280             
 66    63    65      1       127.500    292.880             
 68    65    67      1       127.500    292.880             
 62    64    67      1       106.390    829.185             
 64    67    69      1       119.400    711.280             
 71    69    70      1       119.400    711.280             
 73    70    72      1       127.500    292.880             
 75    72    74      1       127.500    292.880             
 69    71    74      1       106.390    829.185             
 71    74    76      1       119.400    711.280             
 78    76    77      1       119.400    711.280             
 80    77    79      1       127.500    292.880             
 82    79    81      1       120.000    585.760             
 76    78    81      1       106.390    829.185             
 78    81    83      1       119.400    711.280             
 86    83    85      1       119.400    711.280             
 91    85    90      1       120.000    585.760             
 93    90    92      1       127.500    292.880             
 83    86    92      1       106.390    829.185             
 86    92    94      1       119.400    711.280             
 96    94    95      1       119.400    711.280             
 98    95    97      1       127.500    292.880             
 95    97    99      1       112.300    585.760             
 100    97    99      1       123.100    292.880             
 47    49    46      1       119.400    711.280             
 45    47    50      1       120.000    585.760             
 42    44    45      1       120.000    527.184             
 49    47    45      1       120.000    527.184             
 40    42    39      1       119.400    711.280             
 35    37    38      1       120.000    527.184             
 42    40    38      1       120.000    527.184             
 43    40    38      1       127.500    292.880             
 33    35    32      1       119.400    711.280             
 24    27    31      1       120.000    527.184             
 35    33    31      1       120.000    527.184             
 36    33    31      1       127.500    292.880             
 22    24    18      1       119.400    711.280             
 13    15    17      1       120.000    527.184             
 24    22    17      1       120.000    527.184             
 25    22    17      1       127.500    292.880             
 22    17    23      1       120.000    585.760             
 11    13    10      1       119.400    711.280             
 9    11    14      1       120.000    585.760             
 6    8    9      1       120.000    527.184             
 13    11    9      1       120.000    527.184             
 4    6    3      1       119.400    711.280             
 101    1    2      1       128.200    292.880             
 6    4    2      1       120.000    527.184             
 7    4    2      1       127.500    292.880             
 4    2    5      1       127.500    292.880             
 11    9    12      1       127.500    292.880             
 20    16    19      1       107.800    276.144             
 21    16    19      1       107.800    276.144             
 21    16    20      1       107.800    276.144             
 29    26    28      1       107.800    276.144             
 30    26    28      1       107.800    276.144             
 30    26    29      1       107.800    276.144             
 33    31    34      1       127.500    292.880             
 40    38    41      1       127.500    292.880             
 47    45    48      1       127.500    292.880             
 56    52    55      1       107.800    276.144             
 57    52    55      1       107.800    276.144             
 57    52    56      1       107.800    276.144             
 88    84    87      1       107.800    276.144             
 89    84    87      1       107.800    276.144             
 89    84    88      1       107.800    276.144             
 97    99    102      1       128.200    292.880             
 58    60    54      1       119.400    711.280             
 65    67    64      1       119.400    711.280             
 72    74    71      1       119.400    711.280             
 79    81    78      1       119.400    711.280             
 90    92    86      1       119.400    711.280             
 96    99    97      1       111.000    585.760             
 44    45    47      1       120.000    527.184             
 37    38    40      1       120.000    527.184             
 27    31    33      1       120.000    527.184             
 15    17    22      1       120.000    527.184             
 8    9    11      1       120.000    527.184             
 1    2    4      1       112.300    585.760             
 90    85    91      1       120.000    585.760  
 85    91    103      1       111.000    627.600  
 91    103    104      1       109.500    418.400  
 91    103    105      1       109.500    292.880  
 91    103    106      1       109.500    292.880  
 103    104    107      1       109.500    418.400  
 103    104    108      1       110.700    313.800  
 103    104    109      1       110.700    313.800  
 104    107    110      1       109.500    502.080  
 107    110    111      1       109.500    418.400  
 107    110    112      1       109.500    292.880  
 107    110    113      1       109.500    292.880  
 110    111    114      1       109.500    418.400  
 110    111    115      1       110.700    313.800  
 110    111    116      1       110.700    313.800  
 111    114    117      1       109.500    502.080  
 114    117    118      1       109.500    418.400  
 114    117    119      1       109.500    292.880  
 114    117    120      1       109.500    292.880  
 117    118    121      1       109.500    418.400  
 117    118    122      1       110.700    313.800  
 117    118    123      1       110.700    313.800  
 118    121    124      1       109.500    502.080  
 121    124    125      1       109.500    292.880  
 121    124    126      1       109.500    292.880  
 121    124    127      1       109.500    292.880  
 111    110    112      1       110.700    313.800  
 104    103    106      1       110.700    313.800  
 122    118    123      1       107.800    276.144  
 107    104    108      1       109.500    292.880  
 118    117    120      1       110.700    313.800  
 107    104    109      1       109.500    292.880  
 108    104    109      1       107.800    276.144  
 125    124    126      1       107.800    276.144  
 111    110    113      1       110.700    313.800  
 104    103    105      1       110.700    313.800  
 121    118    123      1       109.500    292.880  
 118    117    119      1       110.700    313.800  
 126    124    127      1       107.800    276.144  
 112    110    113      1       107.800    276.144  
 121    118    122      1       109.500    292.880  
 114    111    115      1       109.500    292.880  
 114    111    116      1       109.500    292.880  
 83    85    91      1       120.000    585.760  
 115    111    116      1       107.800    276.144  
 105    103    106      1       107.800    276.144  
 125    124    127      1       107.800    276.144  
 119    117    120      1       107.800    276.144  
 58    53    59      1       120.000    585.760  
 53    59    128      1       111.000    627.600  
 59    128    129      1       109.500    418.400  
 59    128    130      1       109.500    292.880  
 59    128    131      1       109.500    292.880  
 128    129    132      1       109.500    418.400  
 128    129    133      1       110.700    313.800  
 128    129    134      1       110.700    313.800  
 129    132    135      1       109.500    502.080  
 132    135    136      1       109.500    418.400  
 132    135    137      1       109.500    292.880  
 132    135    138      1       109.500    292.880  
 135    136    139      1       109.500    418.400  
 135    136    140      1       110.700    313.800  
 135    136    141      1       110.700    313.800  
 136    139    142      1       109.500    502.080  
 139    142    143      1       109.500    418.400  
 139    142    144      1       109.500    292.880  
 139    142    145      1       109.500    292.880  
 142    143    146      1       109.500    418.400  
 142    143    147      1       110.700    313.800  
 142    143    148      1       110.700    313.800  
 143    146    149      1       109.500    502.080  
 146    149    150      1       109.500    292.880  
 146    149    151      1       109.500    292.880  
 146    149    152      1       109.500    292.880  
 136    135    137      1       110.700    313.800  
 129    128    131      1       110.700    313.800  
 147    143    148      1       107.800    276.144  
 132    129    133      1       109.500    292.880  
 143    142    145      1       110.700    313.800  
 132    129    134      1       109.500    292.880  
 133    129    134      1       107.800    276.144  
 150    149    151      1       107.800    276.144  
 136    135    138      1       110.700    313.800  
 129    128    130      1       110.700    313.800  
 146    143    148      1       109.500    292.880  
 143    142    144      1       110.700    313.800  
 151    149    152      1       107.800    276.144  
 137    135    138      1       107.800    276.144  
 146    143    147      1       109.500    292.880  
 139    136    140      1       109.500    292.880  
 139    136    141      1       109.500    292.880  
 51    53    59      1       120.000    585.760  
 140    136    141      1       107.800    276.144  
 130    128    131      1       107.800    276.144  
 150    149    152      1       107.800    276.144  
 144    142    145      1       107.800    276.144  
 
[ dihedrals ]
;  PROPER DIHEDRAL ANGLES

;  ai    aj   ak   al funct      c0       c1      c2      c3       c4     c5

 58    53    51    49      3       30.334    0.000    -30.334    -0.000    -0.000    0.000             
 59    53    51    49      3       9.079    0.000    -9.079    -0.000    -0.000    0.000             
 60    58    53    51      3       30.334    0.000    -30.334    -0.000    -0.000    0.000             
 62    60    58    53      3       30.334    0.000    -30.334    -0.000    -0.000    0.000             
 63    62    60    58      3       30.334    0.000    -30.334    -0.000    -0.000    0.000             
 64    62    60    58      3       30.334    0.000    -30.334    -0.000    -0.000    0.000             
 65    63    62    60      3       30.334    0.000    -30.334    -0.000    -0.000    0.000             
 67    65    63    62      3       30.334    0.000    -30.334    -0.000    -0.000    0.000             
 69    67    65    63      3       30.334    0.000    -30.334    -0.000    -0.000    0.000             
 70    69    67    65      3       30.334    0.000    -30.334    -0.000    -0.000    0.000             
 71    69    67    65      3       30.334    0.000    -30.334    -0.000    -0.000    0.000             
 72    70    69    67      3       30.334    0.000    -30.334    -0.000    -0.000    0.000             
 74    72    70    69      3       30.334    0.000    -30.334    -0.000    -0.000    0.000             
 76    74    72    70      3       30.334    0.000    -30.334    -0.000    -0.000    0.000             
 77    76    74    72      3       30.334    0.000    -30.334    -0.000    -0.000    0.000             
 78    76    74    72      3       30.334    0.000    -30.334    -0.000    -0.000    0.000             
 79    77    76    74      3       30.334    0.000    -30.334    -0.000    -0.000    0.000             
 81    79    77    76      3       30.334    0.000    -30.334    -0.000    -0.000    0.000             
 82    79    77    76      3       9.079    0.000    -9.079    -0.000    -0.000    0.000             
 83    81    79    77      3       30.334    0.000    -30.334    -0.000    -0.000    0.000             
 84    82    79    77      3       14.100    0.000    -9.079    -0.000    -5.021    0.000             
 85    83    81    79      3       30.334    0.000    -30.334    -0.000    -0.000    0.000             
 86    83    81    79      3       30.334    0.000    -30.334    -0.000    -0.000    0.000             
 90    85    83    81      3       30.334    0.000    -30.334    -0.000    -0.000    0.000             
 91    85    83    81      3       9.079    0.000    -9.079    -0.000    -0.000    0.000             
 92    90    85    83      3       30.334    0.000    -30.334    -0.000    -0.000    0.000             
 94    92    90    85      3       30.334    0.000    -30.334    -0.000    -0.000    0.000             
 95    94    92    90      3       30.334    0.000    -30.334    -0.000    -0.000    0.000             
 96    94    92    90      3       30.334    0.000    -30.334    -0.000    -0.000    0.000             
 97    95    94    92      3       30.334    0.000    -30.334    -0.000    -0.000    0.000             
 99    96    94    92      3       30.334    0.000    -30.334    -0.000    -0.000    0.000             
 46    49    51    53      3       0.000    0.000    0.000    0.000    0.000    0.000             
 47    49    51    53      3       0.000    0.000    0.000    0.000    0.000    0.000             
 50    47    49    51      3       9.079    0.000    -9.079    -0.000    -0.000    0.000             
 52    50    47    49      3       14.100    0.000    -9.079    -0.000    -5.021    0.000             
 44    46    49    51      3       30.334    0.000    -30.334    -0.000    -0.000    0.000             
 45    44    46    49      3       30.334    0.000    -30.334    -0.000    -0.000    0.000             
 42    44    46    49      3       30.334    0.000    -30.334    -0.000    -0.000    0.000             
 39    42    44    46      3       30.334    0.000    -30.334    -0.000    -0.000    0.000             
 40    42    44    46      3       30.334    0.000    -30.334    -0.000    -0.000    0.000             
 37    39    42    44      3       30.334    0.000    -30.334    -0.000    -0.000    0.000             
 38    37    39    42      3       30.334    0.000    -30.334    -0.000    -0.000    0.000             
 35    37    39    42      3       30.334    0.000    -30.334    -0.000    -0.000    0.000             
 32    35    37    39      3       30.334    0.000    -30.334    -0.000    -0.000    0.000             
 33    35    37    39      3       30.334    0.000    -30.334    -0.000    -0.000    0.000             
 27    32    35    37      3       30.334    0.000    -30.334    -0.000    -0.000    0.000             
 31    27    32    35      3       30.334    0.000    -30.334    -0.000    -0.000    0.000             
 24    27    32    35      3       30.334    0.000    -30.334    -0.000    -0.000    0.000             
 18    24    27    32      3       30.334    0.000    -30.334    -0.000    -0.000    0.000             
 22    24    27    32      3       30.334    0.000    -30.334    -0.000    -0.000    0.000             
 15    18    24    27      3       30.334    0.000    -30.334    -0.000    -0.000    0.000             
 17    15    18    24      3       30.334    0.000    -30.334    -0.000    -0.000    0.000             
 23    17    15    18      3       9.079    0.000    -9.079    -0.000    -0.000    0.000             
 26    23    17    15      3       14.100    0.000    -9.079    -0.000    -5.021    0.000             
 13    15    18    24      3       30.334    0.000    -30.334    -0.000    -0.000    0.000             
 10    13    15    18      3       30.334    0.000    -30.334    -0.000    -0.000    0.000             
 11    13    15    18      3       30.334    0.000    -30.334    -0.000    -0.000    0.000             
 14    11    13    15      3       9.079    0.000    -9.079    -0.000    -0.000    0.000             
 16    14    11    13      3       14.100    0.000    -9.079    -0.000    -5.021    0.000             
 8    10    13    15      3       30.334    0.000    -30.334    -0.000    -0.000    0.000             
 9    8    10    13      3       30.334    0.000    -30.334    -0.000    -0.000    0.000             
 6    8    10    13      3       30.334    0.000    -30.334    -0.000    -0.000    0.000             
 3    6    8    10      3       30.334    0.000    -30.334    -0.000    -0.000    0.000             
 4    6    8    10      3       30.334    0.000    -30.334    -0.000    -0.000    0.000             
 1    3    6    8      3       30.334    0.000    -30.334    -0.000    -0.000    0.000             
 2    1    3    6      3       30.334    0.000    -30.334    -0.000    -0.000    0.000             
 5    2    1    3      3       44.978    0.000    -44.978    -0.000    -0.000    0.000             
 7    4    6    8      3       30.334    0.000    -30.334    -0.000    -0.000    0.000             
 12    9    8    10      3       30.334    0.000    -30.334    -0.000    -0.000    0.000             
 19    16    14    11      3       1.590    4.770    0.000    -6.360    -0.000    0.000             
 20    16    14    11      3       1.590    4.770    0.000    -6.360    -0.000    0.000             
 21    16    14    11      3       1.590    4.770    0.000    -6.360    -0.000    0.000             
 25    22    24    27      3       30.334    0.000    -30.334    -0.000    -0.000    0.000             
 28    26    23    17      3       1.590    4.770    0.000    -6.360    -0.000    0.000             
 29    26    23    17      3       1.590    4.770    0.000    -6.360    -0.000    0.000             
 30    26    23    17      3       1.590    4.770    0.000    -6.360    -0.000    0.000             
 34    31    27    32      3       30.334    0.000    -30.334    -0.000    -0.000    0.000             
 36    33    35    37      3       30.334    0.000    -30.334    -0.000    -0.000    0.000             
 41    38    37    39      3       30.334    0.000    -30.334    -0.000    -0.000    0.000             
 43    40    42    44      3       30.334    0.000    -30.334    -0.000    -0.000    0.000             
 48    45    44    46      3       30.334    0.000    -30.334    -0.000    -0.000    0.000             
 55    52    50    47      3       1.590    4.770    0.000    -6.360    -0.000    0.000             
 56    52    50    47      3       1.590    4.770    0.000    -6.360    -0.000    0.000             
 57    52    50    47      3       1.590    4.770    0.000    -6.360    -0.000    0.000             
 61    58    53    51      3       30.334    0.000    -30.334    -0.000    -0.000    0.000             
 66    63    62    60      3       30.334    0.000    -30.334    -0.000    -0.000    0.000             
 68    65    63    62      3       30.334    0.000    -30.334    -0.000    -0.000    0.000             
 73    70    69    67      3       30.334    0.000    -30.334    -0.000    -0.000    0.000             
 75    72    70    69      3       30.334    0.000    -30.334    -0.000    -0.000    0.000             
 80    77    76    74      3       30.334    0.000    -30.334    -0.000    -0.000    0.000             
 87    84    82    79      3       1.590    4.770    0.000    -6.360    -0.000    0.000             
 88    84    82    79      3       1.590    4.770    0.000    -6.360    -0.000    0.000             
 89    84    82    79      3       1.590    4.770    0.000    -6.360    -0.000    0.000             
 93    90    85    83      3       30.334    0.000    -30.334    -0.000    -0.000    0.000             
 98    95    94    92      3       30.334    0.000    -30.334    -0.000    -0.000    0.000             
 100    97    95    94      3       30.334    0.000    -30.334    -0.000    -0.000    0.000             
 101    1    3    6      3       30.334    0.000    -30.334    -0.000    -0.000    0.000             
 102    99    96    94      3       30.334    0.000    -30.334    -0.000    -0.000    0.000             
 60    54    51    49      3       30.334    0.000    -30.334    -0.000    -0.000    0.000             
 60    54    51    53      3       30.334    0.000    -30.334    -0.000    -0.000    0.000             
 46    49    51    54      3       0.000    0.000    0.000    0.000    0.000    0.000             
 47    49    51    54      3       0.000    0.000    0.000    0.000    0.000    0.000             
 58    53    51    54      3       30.334    0.000    -30.334    -0.000    -0.000    0.000             
 59    53    51    54      3       9.079    0.000    -9.079    -0.000    -0.000    0.000             
 60    58    53    59      3       9.079    0.000    -9.079    -0.000    -0.000    0.000             
 61    58    53    59      3       9.079    0.000    -9.079    -0.000    -0.000    0.000             
 61    58    60    62      3       30.334    0.000    -30.334    -0.000    -0.000    0.000             
 51    54    60    62      3       30.334    0.000    -30.334    -0.000    -0.000    0.000             
 54    60    62    63      3       30.334    0.000    -30.334    -0.000    -0.000    0.000             
 67    64    62    63      3       30.334    0.000    -30.334    -0.000    -0.000    0.000             
 54    60    62    64      3       30.334    0.000    -30.334    -0.000    -0.000    0.000             
 65    63    62    64      3       30.334    0.000    -30.334    -0.000    -0.000    0.000             
 66    63    62    64      3       30.334    0.000    -30.334    -0.000    -0.000    0.000             
 66    63    65    67      3       30.334    0.000    -30.334    -0.000    -0.000    0.000             
 60    62    64    67      3       30.334    0.000    -30.334    -0.000    -0.000    0.000             
 68    65    67    69      3       30.334    0.000    -30.334    -0.000    -0.000    0.000             
 62    64    67    69      3       30.334    0.000    -30.334    -0.000    -0.000    0.000             
 64    67    69    70      3       30.334    0.000    -30.334    -0.000    -0.000    0.000             
 74    71    69    70      3       30.334    0.000    -30.334    -0.000    -0.000    0.000             
 64    67    69    71      3       30.334    0.000    -30.334    -0.000    -0.000    0.000             
 72    70    69    71      3       30.334    0.000    -30.334    -0.000    -0.000    0.000             
 73    70    69    71      3       30.334    0.000    -30.334    -0.000    -0.000    0.000             
 73    70    72    74      3       30.334    0.000    -30.334    -0.000    -0.000    0.000             
 67    69    71    74      3       30.334    0.000    -30.334    -0.000    -0.000    0.000             
 75    72    74    76      3       30.334    0.000    -30.334    -0.000    -0.000    0.000             
 69    71    74    76      3       30.334    0.000    -30.334    -0.000    -0.000    0.000             
 71    74    76    77      3       30.334    0.000    -30.334    -0.000    -0.000    0.000             
 81    78    76    77      3       30.334    0.000    -30.334    -0.000    -0.000    0.000             
 71    74    76    78      3       30.334    0.000    -30.334    -0.000    -0.000    0.000             
 79    77    76    78      3       30.334    0.000    -30.334    -0.000    -0.000    0.000             
 80    77    76    78      3       30.334    0.000    -30.334    -0.000    -0.000    0.000             
 80    77    79    81      3       30.334    0.000    -30.334    -0.000    -0.000    0.000             
 84    82    79    81      3       14.100    0.000    -9.079    -0.000    -5.021    0.000             
 74    76    78    81      3       30.334    0.000    -30.334    -0.000    -0.000    0.000             
 80    77    79    82      3       9.079    0.000    -9.079    -0.000    -0.000    0.000             
 78    81    79    82      3       9.079    0.000    -9.079    -0.000    -0.000    0.000             
 83    81    79    82      3       9.079    0.000    -9.079    -0.000    -0.000    0.000             
 76    78    81    83      3       30.334    0.000    -30.334    -0.000    -0.000    0.000             
 78    81    83    85      3       30.334    0.000    -30.334    -0.000    -0.000    0.000             
 92    86    83    85      3       30.334    0.000    -30.334    -0.000    -0.000    0.000             
 78    81    83    86      3       30.334    0.000    -30.334    -0.000    -0.000    0.000             
 90    85    83    86      3       30.334    0.000    -30.334    -0.000    -0.000    0.000             
 91    85    83    86      3       9.079    0.000    -9.079    -0.000    -0.000    0.000             
 92    90    85    91      3       9.079    0.000    -9.079    -0.000    -0.000    0.000             
 93    90    85    91      3       9.079    0.000    -9.079    -0.000    -0.000    0.000             
 81    83    86    92      3       30.334    0.000    -30.334    -0.000    -0.000    0.000             
 93    90    92    94      3       30.334    0.000    -30.334    -0.000    -0.000    0.000             
 83    86    92    94      3       30.334    0.000    -30.334    -0.000    -0.000    0.000             
 86    92    94    95      3       30.334    0.000    -30.334    -0.000    -0.000    0.000             
 99    96    94    95      3       30.334    0.000    -30.334    -0.000    -0.000    0.000             
 86    92    94    96      3       30.334    0.000    -30.334    -0.000    -0.000    0.000             
 97    95    94    96      3       30.334    0.000    -30.334    -0.000    -0.000    0.000             
 98    95    94    96      3       30.334    0.000    -30.334    -0.000    -0.000    0.000             
 94    95    97    99      3       30.334    0.000    -30.334    -0.000    -0.000    0.000             
 98    95    97    99      3       30.334    0.000    -30.334    -0.000    -0.000    0.000             
 50    47    49    46      3       9.079    0.000    -9.079    -0.000    -0.000    0.000             
 45    47    49    46      3       30.334    0.000    -30.334    -0.000    -0.000    0.000             
 44    46    49    47      3       30.334    0.000    -30.334    -0.000    -0.000    0.000             
 44    45    47    50      3       9.079    0.000    -9.079    -0.000    -0.000    0.000             
 48    45    47    50      3       9.079    0.000    -9.079    -0.000    -0.000    0.000             
 45    47    50    52      3       14.100    0.000    -9.079    -0.000    -5.021    0.000             
 39    42    44    45      3       30.334    0.000    -30.334    -0.000    -0.000    0.000             
 40    42    44    45      3       30.334    0.000    -30.334    -0.000    -0.000    0.000             
 51    49    47    45      3       30.334    0.000    -30.334    -0.000    -0.000    0.000             
 47    45    44    42      3       30.334    0.000    -30.334    -0.000    -0.000    0.000             
 48    45    44    42      3       30.334    0.000    -30.334    -0.000    -0.000    0.000             
 38    40    42    39      3       30.334    0.000    -30.334    -0.000    -0.000    0.000             
 43    40    42    39      3       30.334    0.000    -30.334    -0.000    -0.000    0.000             
 37    39    42    40      3       30.334    0.000    -30.334    -0.000    -0.000    0.000             
 32    35    37    38      3       30.334    0.000    -30.334    -0.000    -0.000    0.000             
 33    35    37    38      3       30.334    0.000    -30.334    -0.000    -0.000    0.000             
 44    42    40    38      3       30.334    0.000    -30.334    -0.000    -0.000    0.000             
 40    38    37    35      3       30.334    0.000    -30.334    -0.000    -0.000    0.000             
 41    38    37    35      3       30.334    0.000    -30.334    -0.000    -0.000    0.000             
 31    33    35    32      3       30.334    0.000    -30.334    -0.000    -0.000    0.000             
 36    33    35    32      3       30.334    0.000    -30.334    -0.000    -0.000    0.000             
 27    32    35    33      3       30.334    0.000    -30.334    -0.000    -0.000    0.000             
 18    24    27    31      3       30.334    0.000    -30.334    -0.000    -0.000    0.000             
 22    24    27    31      3       30.334    0.000    -30.334    -0.000    -0.000    0.000             
 37    35    33    31      3       30.334    0.000    -30.334    -0.000    -0.000    0.000             
 33    31    27    24      3       30.334    0.000    -30.334    -0.000    -0.000    0.000             
 34    31    27    24      3       30.334    0.000    -30.334    -0.000    -0.000    0.000             
 17    22    24    18      3       30.334    0.000    -30.334    -0.000    -0.000    0.000             
 25    22    24    18      3       30.334    0.000    -30.334    -0.000    -0.000    0.000             
 15    18    24    22      3       30.334    0.000    -30.334    -0.000    -0.000    0.000             
 10    13    15    17      3       30.334    0.000    -30.334    -0.000    -0.000    0.000             
 11    13    15    17      3       30.334    0.000    -30.334    -0.000    -0.000    0.000             
 27    24    22    17      3       30.334    0.000    -30.334    -0.000    -0.000    0.000             
 13    15    17    23      3       9.079    0.000    -9.079    -0.000    -0.000    0.000             
 24    22    17    23      3       9.079    0.000    -9.079    -0.000    -0.000    0.000             
 25    22    17    23      3       9.079    0.000    -9.079    -0.000    -0.000    0.000             
 22    17    23    26      3       14.100    0.000    -9.079    -0.000    -5.021    0.000             
 22    17    15    13      3       30.334    0.000    -30.334    -0.000    -0.000    0.000             
 14    11    13    10      3       9.079    0.000    -9.079    -0.000    -0.000    0.000             
 9    11    13    10      3       30.334    0.000    -30.334    -0.000    -0.000    0.000             
 8    10    13    11      3       30.334    0.000    -30.334    -0.000    -0.000    0.000             
 8    9    11    14      3       9.079    0.000    -9.079    -0.000    -0.000    0.000             
 12    9    11    14      3       9.079    0.000    -9.079    -0.000    -0.000    0.000             
 9    11    14    16      3       14.100    0.000    -9.079    -0.000    -5.021    0.000             
 3    6    8    9      3       30.334    0.000    -30.334    -0.000    -0.000    0.000             
 4    6    8    9      3       30.334    0.000    -30.334    -0.000    -0.000    0.000             
 15    13    11    9      3       30.334    0.000    -30.334    -0.000    -0.000    0.000             
 11    9    8    6      3       30.334    0.000    -30.334    -0.000    -0.000    0.000             
 12    9    8    6      3       30.334    0.000    -30.334    -0.000    -0.000    0.000             
 2    4    6    3      3       30.334    0.000    -30.334    -0.000    -0.000    0.000             
 7    4    6    3      3       30.334    0.000    -30.334    -0.000    -0.000    0.000             
 1    3    6    4      3       30.334    0.000    -30.334    -0.000    -0.000    0.000             
 8    6    4    2      3       30.334    0.000    -30.334    -0.000    -0.000    0.000             
 101    1    2    5      3       30.334    0.000    -30.334    -0.000    -0.000    0.000             
 6    4    2    5      3       30.334    0.000    -30.334    -0.000    -0.000    0.000             
 7    4    2    5      3       30.334    0.000    -30.334    -0.000    -0.000    0.000             
 1    2    4    7      3       30.334    0.000    -30.334    -0.000    -0.000    0.000             
 13    11    9    12      3       30.334    0.000    -30.334    -0.000    -0.000    0.000             
 15    17    22    25      3       30.334    0.000    -30.334    -0.000    -0.000    0.000             
 35    33    31    34      3       30.334    0.000    -30.334    -0.000    -0.000    0.000             
 36    33    31    34      3       30.334    0.000    -30.334    -0.000    -0.000    0.000             
 27    31    33    36      3       30.334    0.000    -30.334    -0.000    -0.000    0.000             
 42    40    38    41      3       30.334    0.000    -30.334    -0.000    -0.000    0.000             
 43    40    38    41      3       30.334    0.000    -30.334    -0.000    -0.000    0.000             
 37    38    40    43      3       30.334    0.000    -30.334    -0.000    -0.000    0.000             
 49    47    45    48      3       30.334    0.000    -30.334    -0.000    -0.000    0.000             
 54    60    58    61      3       30.334    0.000    -30.334    -0.000    -0.000    0.000             
 68    65    63    66      3       30.334    0.000    -30.334    -0.000    -0.000    0.000             
 64    67    65    68      3       30.334    0.000    -30.334    -0.000    -0.000    0.000             
 75    72    70    73      3       30.334    0.000    -30.334    -0.000    -0.000    0.000             
 71    74    72    75      3       30.334    0.000    -30.334    -0.000    -0.000    0.000             
 86    92    90    93      3       30.334    0.000    -30.334    -0.000    -0.000    0.000             
 100    97    95    98      3       30.334    0.000    -30.334    -0.000    -0.000    0.000             
 96    99    97    100      3       44.978    0.000    -44.978    -0.000    -0.000    0.000             
 102    99    97    100      3       30.334    0.000    -30.334    -0.000    -0.000    0.000             
 4    2    1    101      3       30.334    0.000    -30.334    -0.000    -0.000    0.000             
 95    97    99    102      3       30.334    0.000    -30.334    -0.000    -0.000    0.000             
 53    58    60    54      3       30.334    0.000    -30.334    -0.000    -0.000    0.000             
 51    54    60    58      3       30.334    0.000    -30.334    -0.000    -0.000    0.000             
 63    65    67    64      3       30.334    0.000    -30.334    -0.000    -0.000    0.000             
 62    64    67    65      3       30.334    0.000    -30.334    -0.000    -0.000    0.000             
 70    72    74    71      3       30.334    0.000    -30.334    -0.000    -0.000    0.000             
 69    71    74    72      3       30.334    0.000    -30.334    -0.000    -0.000    0.000             
 77    79    81    78      3       30.334    0.000    -30.334    -0.000    -0.000    0.000             
 76    78    81    79      3       30.334    0.000    -30.334    -0.000    -0.000    0.000             
 85    90    92    86      3       30.334    0.000    -30.334    -0.000    -0.000    0.000             
 83    86    92    90      3       30.334    0.000    -30.334    -0.000    -0.000    0.000             
 94    96    99    97      3       30.334    0.000    -30.334    -0.000    -0.000    0.000             
 95    97    99    96      3       30.334    0.000    -30.334    -0.000    -0.000    0.000             
 46    44    45    47      3       30.334    0.000    -30.334    -0.000    -0.000    0.000             
 49    47    45    44      3       30.334    0.000    -30.334    -0.000    -0.000    0.000             
 39    37    38    40      3       30.334    0.000    -30.334    -0.000    -0.000    0.000             
 42    40    38    37      3       30.334    0.000    -30.334    -0.000    -0.000    0.000             
 32    27    31    33      3       30.334    0.000    -30.334    -0.000    -0.000    0.000             
 35    33    31    27      3       30.334    0.000    -30.334    -0.000    -0.000    0.000             
 18    15    17    22      3       30.334    0.000    -30.334    -0.000    -0.000    0.000             
 24    22    17    15      3       30.334    0.000    -30.334    -0.000    -0.000    0.000             
 10    8    9    11      3       30.334    0.000    -30.334    -0.000    -0.000    0.000             
 13    11    9    8      3       30.334    0.000    -30.334    -0.000    -0.000    0.000             
 3    1    2    4      3       30.334    0.000    -30.334    -0.000    -0.000    0.000             
 6    4    2    1      3       30.334    0.000    -30.334    -0.000    -0.000    0.000             
 104    103    91    85      3       1.749336    17.711244    -2.824452    -30.455570    10.061197    0.958068  
 118    117    114    111      3       1.749336    17.711244    -2.824452    -30.455570    10.061197    0.958068  
 111    110    107    104      3       1.749336    17.711244    -2.824452    -30.455570    10.061197    0.958068  
 103    91    85    90      3       1.715    2.845    1.046    -5.607    -0.000    0.000  
 103    91    85    83      3       1.715    2.845    1.046    -5.607    -0.000    0.000  
 124    121    118    117      3       1.749336    17.711244    -2.824452    -30.455570    10.061197    0.958068  
 110    107    104    103      3       1.749336    17.711244    -2.824452    -30.455570    10.061197    0.958068  
 117    114    111    110      3       1.749336    17.711244    -2.824452    -30.455570    10.061197    0.958068  
 110    107    104    109      3       0.000000    0.000000    0.000000    0.000000    0.000000    0.000000  
 124    121    118    123      3       0.000000    0.000000    0.000000    0.000000    0.000000    0.000000  
 117    114    111    115      3       0.000000    0.000000    0.000000    0.000000    0.000000    0.000000  
 117    114    111    116      3       0.000000    0.000000    0.000000    0.000000    0.000000    0.000000  
 110    107    104    108      3       0.000000    0.000000    0.000000    0.000000    0.000000    0.000000  
 124    121    118    122      3       0.000000    0.000000    0.000000    0.000000    0.000000    0.000000  
 116    111    110    112      3       0.772830    15.09003    5.377169    -26.373934    4.616032    0.420126  
 109    104    103    105      3       0.772830    15.09003    5.377169    -26.373934    4.616032    0.420126  
 109    104    103    106      3       0.000000    0.000000    0.000000    0.000000    0.000000    0.000000  
 123    118    117    120      3       0.772830    15.09003    5.377169    -26.373934    4.616032    0.420126  
 108    104    103    105      3       0.000000    0.000000    0.000000    0.000000    0.000000    0.000000  
 115    111    110    112      3       0.000000    0.000000    0.000000    0.000000    0.000000    0.000000  
 108    104    103    106      3       0.000000    0.000000    0.000000    0.000000    0.000000    0.000000  
 123    118    117    119      3       0.000000    0.000000    0.000000    0.000000    0.000000    0.000000  
 122    118    117    120      3       0.000000    0.000000    0.000000    0.000000    0.000000    0.000000  
 116    111    110    113      3       0.000000    0.000000    0.000000    0.000000    0.000000    0.000000  
 122    118    117    119      3       0.000000    0.000000    0.000000    0.000000    0.000000    0.000000  
 115    111    110    113      3       0.000000    0.000000    0.000000    0.000000    0.000000    0.000000  
 108    104    103    91      3       0.000000    0.000000    0.000000    0.000000    0.000000    0.000000  
 123    118    117    114      3       0.000000    0.000000    0.000000    0.000000    0.000000    0.000000  
 122    118    117    114      3       0.000000    0.000000    0.000000    0.000000    0.000000    0.000000  
 115    111    110    107      3       0.000000    0.000000    0.000000    0.000000    0.000000    0.000000  
 109    104    103    91      3       0.000000    0.000000    0.000000    0.000000    0.000000    0.000000  
 116    111    110    107      3       0.000000    0.000000    0.000000    0.000000    0.000000    0.000000  
 105    103    91    85      3       0.000000    0.000000    0.000000    0.000000    0.000000    0.000000  
 106    103    91    85      3       0.000000    0.000000    0.000000    0.000000    0.000000    0.000000  
 113    110    107    104      3       0.000000    0.000000    0.000000    0.000000    0.000000    0.000000  
 119    117    114    111      3       0.000000    0.000000    0.000000    0.000000    0.000000    0.000000  
 120    117    114    111      3       0.000000    0.000000    0.000000    0.000000    0.000000    0.000000  
 125    124    121    118      3       1.590    4.770    0.000    -6.360    -0.000    0.000  
 126    124    121    118      3       1.590    4.770    0.000    -6.360    -0.000    0.000  
 127    124    121    118      3       1.590    4.770    0.000    -6.360    -0.000    0.000  
 112    110    107    104      3       0.000000    0.000000    0.000000    0.000000    0.000000    0.000000  
 91    85    90    92      3       9.079    0.000    -9.079    -0.000    -0.000    0.000  
 91    85    83    81      3       9.079    0.000    -9.079    -0.000    -0.000    0.000  
 91    85    90    93      3       9.079    0.000    -9.079    -0.000    -0.000    0.000  
 91    85    83    86      3       9.079    0.000    -9.079    -0.000    -0.000    0.000  
 121    118    117    120      3       0.000000    0.000000    0.000000    0.000000    0.000000    0.000000  
 107    104    103    106      3       0.000000    0.000000    0.000000    0.000000    0.000000    0.000000  
 114    111    110    113      3       0.000000    0.000000    0.000000    0.000000    0.000000    0.000000  
 107    104    103    105      3       0.000000    0.000000    0.000000    0.000000    0.000000    0.000000  
 121    118    117    119      3       0.000000    0.000000    0.000000    0.000000    0.000000    0.000000  
 114    111    110    112      3       0.000000    0.000000    0.000000    0.000000    0.000000    0.000000  
 121    118    117    114      3       0.000000    0.000000    0.000000    0.000000    0.000000    0.000000  
 107    104    103    91      3       0.000000    0.000000    0.000000    0.000000    0.000000    0.000000  
 114    111    110    107      3       0.000000    0.000000    0.000000    0.000000    0.000000    0.000000  
 129    128    59    53      3       1.749336    17.711244    -2.824452    -30.455570    10.061197    0.958068  
 143    142    139    136      3       1.749336    17.711244    -2.824452    -30.455570    10.061197    0.958068  
 136    135    132    129      3       1.749336    17.711244    -2.824452    -30.455570    10.061197    0.958068  
 128    59    53    58      3       1.715    2.845    1.046    -5.607    -0.000    0.000  
 128    59    53    51      3       1.715    2.845    1.046    -5.607    -0.000    0.000  
 149    146    143    142      3       1.749336    17.711244    -2.824452    -30.455570    10.061197    0.958068  
 135    132    129    128      3       1.749336    17.711244    -2.824452    -30.455570    10.061197    0.958068  
 142    139    136    135      3       1.749336    17.711244    -2.824452    -30.455570    10.061197    0.958068  
 135    132    129    134      3       0.000000    0.000000    0.000000    0.000000    0.000000    0.000000  
 149    146    143    148      3       0.000000    0.000000    0.000000    0.000000    0.000000    0.000000  
 142    139    136    140      3       0.000000    0.000000    0.000000    0.000000    0.000000    0.000000  
 142    139    136    141      3       0.000000    0.000000    0.000000    0.000000    0.000000    0.000000  
 135    132    129    133      3       0.000000    0.000000    0.000000    0.000000    0.000000    0.000000  
 149    146    143    147      3       0.000000    0.000000    0.000000    0.000000    0.000000    0.000000  
 141    136    135    137      3       0.772830    15.09003    5.377169    -26.373934    4.616032    0.420126  
 134    129    128    130      3       0.772830    15.09003    5.377169    -26.373934    4.616032    0.420126  
 134    129    128    131      3       0.000000    0.000000    0.000000    0.000000    0.000000    0.000000  
 148    143    142    145      3       0.772830    15.09003    5.377169    -26.373934    4.616032    0.420126  
 133    129    128    130      3       0.000000    0.000000    0.000000    0.000000    0.000000    0.000000  
 140    136    135    137      3       0.000000    0.000000    0.000000    0.000000    0.000000    0.000000  
 133    129    128    131      3       0.000000    0.000000    0.000000    0.000000    0.000000    0.000000  
 148    143    142    144      3       0.000000    0.000000    0.000000    0.000000    0.000000    0.000000  
 147    143    142    145      3       0.000000    0.000000    0.000000    0.000000    0.000000    0.000000  
 141    136    135    138      3       0.000000    0.000000    0.000000    0.000000    0.000000    0.000000  
 147    143    142    144      3       0.000000    0.000000    0.000000    0.000000    0.000000    0.000000  
 140    136    135    138      3       0.000000    0.000000    0.000000    0.000000    0.000000    0.000000  
 133    129    128    59      3       0.000000    0.000000    0.000000    0.000000    0.000000    0.000000  
 148    143    142    139      3       0.000000    0.000000    0.000000    0.000000    0.000000    0.000000  
 147    143    142    139      3       0.000000    0.000000    0.000000    0.000000    0.000000    0.000000  
 140    136    135    132      3       0.000000    0.000000    0.000000    0.000000    0.000000    0.000000  
 134    129    128    59      3       0.000000    0.000000    0.000000    0.000000    0.000000    0.000000  
 141    136    135    132      3       0.000000    0.000000    0.000000    0.000000    0.000000    0.000000  
 130    128    59    53      3       0.000000    0.000000    0.000000    0.000000    0.000000    0.000000  
 131    128    59    53      3       0.000000    0.000000    0.000000    0.000000    0.000000    0.000000  
 138    135    132    129      3       0.000000    0.000000    0.000000    0.000000    0.000000    0.000000  
 144    142    139    136      3       0.000000    0.000000    0.000000    0.000000    0.000000    0.000000  
 145    142    139    136      3       0.000000    0.000000    0.000000    0.000000    0.000000    0.000000  
 150    149    146    143      3       1.590    4.770    0.000    -6.360    -0.000    0.000  
 151    149    146    143      3       1.590    4.770    0.000    -6.360    -0.000    0.000  
 152    149    146    143      3       1.590    4.770    0.000    -6.360    -0.000    0.000  
 137    135    132    129      3       0.000000    0.000000    0.000000    0.000000    0.000000    0.000000  
 59    53    58    60      3       9.079    0.000    -9.079    -0.000    -0.000    0.000  
 59    53    51    49      3       9.079    0.000    -9.079    -0.000    -0.000    0.000  
 59    53    58    61      3       9.079    0.000    -9.079    -0.000    -0.000    0.000  
 59    53    51    54      3       9.079    0.000    -9.079    -0.000    -0.000    0.000  
 146    143    142    145      3       0.000000    0.000000    0.000000    0.000000    0.000000    0.000000  
 132    129    128    131      3       0.000000    0.000000    0.000000    0.000000    0.000000    0.000000  
 139    136    135    138      3       0.000000    0.000000    0.000000    0.000000    0.000000    0.000000  
 132    129    128    130      3       0.000000    0.000000    0.000000    0.000000    0.000000    0.000000  
 146    143    142    144      3       0.000000    0.000000    0.000000    0.000000    0.000000    0.000000  
 139    136    135    137      3       0.000000    0.000000    0.000000    0.000000    0.000000    0.000000  
 146    143    142    139      3       0.000000    0.000000    0.000000    0.000000    0.000000    0.000000  
 132    129    128    59      3       0.000000    0.000000    0.000000    0.000000    0.000000    0.000000  
 139    136    135    132      3       0.000000    0.000000    0.000000    0.000000    0.000000    0.000000  
 
[ dihedrals ]
;IMPROPER DIHEDRAL ANGLES

;  ai    aj   ak   al funct      c0       c1      c2      c3       c4     c5

 49    51    53    54      4       180.000    10.460    2             
 51    49    46    47      4       180.000    10.460    2             
 51    53    58    59      4       180.000    10.460    2             
 53    58    60    61      4       180.000    10.460    2             
 58    60    54    62      4       180.000    10.460    2             
 60    62    63    64      4       180.000    10.460    2             
 62    63    65    66      4       180.000    10.460    2             
 63    65    67    68      4       180.000    10.460    2             
 65    67    64    69      4       180.000    10.460    2             
 67    69    70    71      4       180.000    10.460    2             
 69    70    72    73      4       180.000    10.460    2             
 70    72    74    75      4       180.000    10.460    2             
 72    74    71    76      4       180.000    10.460    2             
 74    76    77    78      4       180.000    10.460    2             
 76    77    79    80      4       180.000    10.460    2             
 77    79    81    82      4       180.000    10.460    2             
 79    81    78    83      4       180.000    10.460    2             
 81    83    85    86      4       180.000    10.460    2             
 83    85    90    91      4       180.000    10.460    2             
 85    90    92    93      4       180.000    10.460    2             
 90    92    86    94      4       180.000    10.460    2             
 92    94    95    96      4       180.000    10.460    2             
 94    95    97    98      4       180.000    10.460    2             
 95    97    99    100      4       180.000    10.460    2             
 96    99    97    102      4       180.000    10.460    2             
 49    47    50    45      4       180.000    10.460    2             
 46    44    45    42      4       180.000    10.460    2             
 44    45    47    48      4       180.000    10.460    2             
 44    42    39    40      4       180.000    10.460    2             
 42    40    38    43      4       180.000    10.460    2             
 39    37    38    35      4       180.000    10.460    2             
 37    38    40    41      4       180.000    10.460    2             
 37    35    32    33      4       180.000    10.460    2             
 35    33    31    36      4       180.000    10.460    2             
 32    27    31    24      4       180.000    10.460    2             
 27    31    33    34      4       180.000    10.460    2             
 27    24    18    22      4       180.000    10.460    2             
 24    22    17    25      4       180.000    10.460    2             
 18    15    17    13      4       180.000    10.460    2             
 15    17    22    23      4       180.000    10.460    2             
 15    13    10    11      4       180.000    10.460    2             
 13    11    14    9      4       180.000    10.460    2             
 10    8    9    6      4       180.000    10.460    2             
 8    9    11    12      4       180.000    10.460    2             
 8    6    3    4      4       180.000    10.460    2             
 6    4    2    7      4       180.000    10.460    2             
 3    1    2    101      4       180.000    10.460    2             
 1    2    4    5      4       180.000    10.460    2             
 91    85    90    83      4       180.000    10.460    2  
 59    53    58    51      4       180.000    10.460    2  
 
[ pairs ]
;  ai    aj funct

 51    58      1                            
 51    60      1                            
 51    62      1                            
 51    50      1                            
 51    44      1                            
 51    45      1                            
 51    61      1                            
 49    58      1                            
 49    59      1                            
 49    60      1                            
 49    52      1                            
 49    44      1                            
 49    45      1                            
 49    42      1                            
 49    48      1                            
 53    54      1                            
 53    60      1                            
 53    62      1                            
 53    46      1                            
 53    47      1                            
 54    58      1                            
 54    59      1                            
 54    63      1                            
 54    64      1                            
 54    46      1                            
 54    47      1                            
 54    61      1                            
 58    63      1                            
 58    64      1                            
 59    60      1                            
 59    61      1                            
 60    65      1                            
 60    67      1                            
 60    66      1                            
 62    65      1                            
 62    67      1                            
 62    69      1                            
 62    61      1                            
 62    68      1                            
 63    64      1                            
 63    67      1                            
 63    69      1                            
 64    65      1                            
 64    70      1                            
 64    71      1                            
 64    66      1                            
 64    68      1                            
 65    70      1                            
 65    71      1                            
 67    72      1                            
 67    74      1                            
 67    66      1                            
 67    73      1                            
 69    72      1                            
 69    74      1                            
 69    76      1                            
 69    68      1                            
 69    75      1                            
 70    71      1                            
 70    74      1                            
 70    76      1                            
 71    72      1                            
 71    77      1                            
 71    78      1                            
 71    73      1                            
 71    75      1                            
 72    77      1                            
 72    78      1                            
 74    79      1                            
 74    81      1                            
 74    73      1                            
 74    80      1                            
 76    79      1                            
 76    81      1                            
 76    82      1                            
 76    83      1                            
 76    75      1                            
 77    78      1                            
 77    81      1                            
 77    83      1                            
 77    84      1                            
 78    79      1                            
 78    82      1                            
 78    85      1                            
 78    86      1                            
 78    80      1                            
 79    85      1                            
 79    86      1                            
 79    87      1                            
 79    88      1                            
 79    89      1                            
 81    84      1                            
 81    90      1                            
 81    91      1                            
 81    92      1                            
 81    80      1                            
 82    83      1                            
 82    80      1                            
 83    90      1                            
 83    92      1                            
 83    94      1                            
 83    93      1                            
 85    86      1                            
 85    92      1                            
 85    94      1                            
 86    90      1                            
 86    91      1                            
 86    95      1                            
 86    96      1                            
 86    93      1                            
 90    95      1                            
 90    96      1                            
 91    92      1                            
 91    93      1                            
 92    97      1                            
 92    99      1                            
 92    98      1                            
 94    97      1                            
 94    99      1                            
 94    93      1                            
 94    100      1                            
 94    102      1                            
 95    96      1                            
 95    99      1                            
 95    102      1                            
 96    97      1                            
 96    98      1                            
 96    100      1                            
 99    98      1                            
 46    47      1                            
 46    50      1                            
 46    45      1                            
 46    39      1                            
 46    40      1                            
 46    48      1                            
 47    44      1                            
 47    42      1                            
 47    55      1                            
 47    56      1                            
 47    57      1                            
 50    44      1                            
 50    48      1                            
 52    45      1                            
 44    37      1                            
 44    38      1                            
 44    43      1                            
 45    39      1                            
 45    40      1                            
 42    37      1                            
 42    38      1                            
 42    35      1                            
 42    41      1                            
 42    48      1                            
 39    40      1                            
 39    38      1                            
 39    32      1                            
 39    33      1                            
 39    41      1                            
 39    43      1                            
 40    37      1                            
 40    35      1                            
 37    27      1                            
 37    31      1                            
 37    36      1                            
 37    43      1                            
 38    32      1                            
 38    33      1                            
 35    27      1                            
 35    31      1                            
 35    24      1                            
 35    34      1                            
 35    41      1                            
 32    33      1                            
 32    31      1                            
 32    18      1                            
 32    22      1                            
 32    34      1                            
 32    36      1                            
 33    27      1                            
 33    24      1                            
 27    15      1                            
 27    17      1                            
 27    25      1                            
 27    36      1                            
 31    18      1                            
 31    22      1                            
 24    15      1                            
 24    17      1                            
 24    23      1                            
 24    13      1                            
 24    34      1                            
 18    22      1                            
 18    17      1                            
 18    23      1                            
 18    10      1                            
 18    11      1                            
 18    25      1                            
 22    15      1                            
 22    26      1                            
 22    13      1                            
 15    26      1                            
 15    14      1                            
 15    8       1                            
 15    9       1                            
 15    25      1                            
 17    10      1                            
 17    11      1                            
 17    28      1                            
 17    29      1                            
 17    30      1                            
 23    13      1                            
 23    25      1                            
 13    16      1                            
 13    8       1                            
 13    9       1                            
 13    6       1                            
 13    12      1                            
 10    11      1                            
 10    14      1                            
 10    9       1                            
 10    3       1                            
 10    4       1                            
 10    12      1                            
 11    8       1                            
 11    6       1                            
 11    19      1                            
 11    20      1                            
 11    21      1                            
 14    8       1                            
 14    12      1                            
 16    9       1                            
  8    1       1                            
  8    2       1                            
  8    7       1                            
  9    3       1                            
  9    4       1                            
  6    1       1                            
  6    2       1                            
  6    5       1                            
 6    12       1                            
 6    101      1                            
  3    4       1                            
  3    2       1                            
  3    5       1                            
  3    7       1                            
  4    1       1                            
 4    101      1                            
  1    7       1                            
  5    7       1                            
 5    101      1                            
 34    36      1                            
 41    43      1                            
 66    68      1                            
 73    75      1                            
 98    100      1                            
 100    102      1                            
 92    91      1                 
 86    91      1                 
 93    91      1                 
 90    103      1                 
 81    91      1                 
 83    103      1                 
 85    104      1                 
 85    105      1                 
 85    106      1                 
 91    107      1                 
 91    108      1                 
 91    109      1                 
 103    110      1                 
 105    107      1                 
 106    107      1                 
 105    108      1                 
 106    108      1                 
 105    109      1                 
 106    109      1                 
 104    111      1                 
 104    112      1                 
 104    113      1                 
 108    110      1                 
 109    110      1                 
 107    114      1                 
 107    115      1                 
 107    116      1                 
 112    114      1                 
 113    114      1                 
 112    115      1                 
 110    117      1                 
 113    115      1                 
 112    116      1                 
 113    116      1                 
 111    118      1                 
 111    119      1                 
 111    120      1                 
 115    117      1                 
 116    117      1                 
 114    121      1                 
 114    122      1                 
 114    123      1                 
 119    121      1                 
 120    121      1                 
 119    122      1                 
 117    124      1                 
 120    122      1                 
 119    123      1                 
 120    123      1                 
 118    125      1                 
 118    126      1                 
 118    127      1                 
 122    124      1                 
 123    124      1                 
 60    59      1                 
 54    59      1                 
 61    59      1                 
 58    128      1                 
 49    59      1                 
 51    128      1                 
 53    129      1                 
 53    130      1                 
 53    131      1                 
 59    132      1                 
 59    133      1                 
 59    134      1                 
 128    135      1                 
 130    132      1                 
 131    132      1                 
 130    133      1                 
 131    133      1                 
 130    134      1                 
 131    134      1                 
 129    136      1                 
 129    137      1                 
 129    138      1                 
 133    135      1                 
 134    135      1                 
 132    139      1                 
 132    140      1                 
 132    141      1                 
 137    139      1                 
 138    139      1                 
 137    140      1                 
 135    142      1                 
 138    140      1                 
 137    141      1                 
 138    141      1                 
 136    143      1                 
 136    144      1                 
 136    145      1                 
 140    142      1                 
 141    142      1                 
 139    146      1                 
 139    147      1                 
 139    148      1                 
 144    146      1                 
 145    146      1                 
 144    147      1                 
 142    149      1                 
 145    147      1                 
 144    148      1                 
 145    148      1                 
 143    150      1                 
 143    151      1                 
 143    152      1                 
 147    149      1                 
 148    149      1                 
 
