;---------------------------------------------
;        Generated with LigParGen 
;        William L. Jorgensen Lab
;     Author: israel.cabezadevaca@yale.edu
;    OPLS Force Field with CM1A derived Atomic Charges
;---------------------------------------------
[ defaults ]
; nbfunc        comb-rule       gen-pairs       fudgeLJ fudgeQQ
    1               3              yes            0.5     0.5
[ atomtypes ]
  opls_800    CS    12.0110     0.000    A    3.55000E-01   2.92880E-01
  opls_801    CS    12.0110     0.000    A    3.55000E-01   2.92880E-01
  opls_802    CS    12.0110     0.000    A    3.55000E-01   2.92880E-01
  opls_803    SA    32.0670     0.000    A    3.60000E-01   1.48532E+00
  opls_804    CS    12.0110     0.000    A    3.55000E-01   2.92880E-01
  opls_805    OS    15.9990     0.000    A    2.90000E-01   5.85760E-01
  opls_806    CS    12.0110     0.000    A    3.55000E-01   2.92880E-01
  opls_807    CT    12.0110     0.000    A    3.50000E-01   2.76144E-01
  opls_808    CS    12.0110     0.000    A    3.55000E-01   2.92880E-01
  opls_809    CS    12.0110     0.000    A    3.55000E-01   2.92880E-01
  opls_810    SA    32.0670     0.000    A    3.60000E-01   1.48532E+00
  opls_811    CS    12.0110     0.000    A    3.55000E-01   2.92880E-01
  opls_812    CS    12.0110     0.000    A    3.55000E-01   2.92880E-01
  opls_813    CS    12.0110     0.000    A    3.55000E-01   2.92880E-01
  opls_814    CS    12.0110     0.000    A    3.55000E-01   2.92880E-01
  opls_815    SA    32.0670     0.000    A    3.60000E-01   1.48532E+00
  opls_816    CS    12.0110     0.000    A    3.55000E-01   2.92880E-01
  opls_817    CS    12.0110     0.000    A    3.55000E-01   2.92880E-01
  opls_818    CS    12.0110     0.000    A    3.55000E-01   2.92880E-01
  opls_819    CS    12.0110     0.000    A    3.55000E-01   2.92880E-01
  opls_820    SA    32.0670     0.000    A    3.60000E-01   1.48532E+00
  opls_821    CS    12.0110     0.000    A    3.55000E-01   2.92880E-01
  opls_822    CS    12.0110     0.000    A    3.55000E-01   2.92880E-01
  opls_823    OS    15.9990     0.000    A    2.90000E-01   5.85760E-01
  opls_824    CS    12.0110     0.000    A    3.55000E-01   2.92880E-01
  opls_825    CT    12.0110     0.000    A    3.50000E-01   2.76144E-01
  opls_826    CS    12.0110     0.000    A    3.55000E-01   2.92880E-01
  opls_827    SA    32.0670     0.000    A    3.60000E-01   1.48532E+00
  opls_828    CS    12.0110     0.000    A    3.55000E-01   2.92880E-01
  opls_829    OS    15.9990     0.000    A    2.90000E-01   5.85760E-01
  opls_830    CS    12.0110     0.000    A    3.55000E-01   2.92880E-01
  opls_831    CT    12.0110     0.000    A    3.50000E-01   2.76144E-01
  opls_832    CS    12.0110     0.000    A    3.55000E-01   2.92880E-01
  opls_833    CS    12.0110     0.000    A    3.55000E-01   2.92880E-01
  opls_834    SA    32.0670     0.000    A    3.60000E-01   1.48532E+00
  opls_835    CS    12.0110     0.000    A    3.55000E-01   2.92880E-01
  opls_836    CP    12.0110     0.000    A    3.55000E-01   2.92880E-01
  opls_837    SA    32.0670     0.000    A    3.60000E-01   1.48532E+00
  opls_838    CS    12.0110     0.000    A    3.55000E-01   2.92880E-01
  opls_839    OS    15.9990     0.000    A    2.90000E-01   5.85760E-01
  opls_840    CT    12.0110     0.000    A    3.50000E-01   2.76144E-01
  opls_841    CS    12.0110     0.000    A    3.55000E-01   2.92880E-01
  opls_842    CS    12.0110     0.000    A    3.55000E-01   2.92880E-01
  opls_843    CS    12.0110     0.000    A    3.55000E-01   2.92880E-01
  opls_844    SA    32.0670     0.000    A    3.60000E-01   1.48532E+00
  opls_845    CS    12.0110     0.000    A    3.55000E-01   2.92880E-01
  opls_846    CS    12.0110     0.000    A    3.55000E-01   2.92880E-01
  opls_847    CS    12.0110     0.000    A    3.55000E-01   2.92880E-01
  opls_848    CS    12.0110     0.000    A    3.55000E-01   2.92880E-01
  opls_849    SA    32.0670     0.000    A    3.60000E-01   1.48532E+00
  opls_850    CS    12.0110     0.000    A    3.55000E-01   2.92880E-01
  opls_851    CS    12.0110     0.000    A    3.55000E-01   2.92880E-01
  opls_852    CS    12.0110     0.000    A    3.55000E-01   2.92880E-01
  opls_853    CS    12.0110     0.000    A    3.55000E-01   2.92880E-01
  opls_854    SA    32.0670     0.000    A    3.60000E-01   1.48532E+00
  opls_855    CS    12.0110     0.000    A    3.55000E-01   2.92880E-01
  opls_856    CS    12.0110     0.000    A    3.55000E-01   2.92880E-01
  opls_857    CS    12.0110     0.000    A    3.55000E-01   2.92880E-01
  opls_858    OS    15.9990     0.000    A    2.90000E-01   5.85760E-01
  opls_859    CT    12.0110     0.000    A    3.50000E-01   2.76144E-01
  opls_860    CS    12.0110     0.000    A    3.55000E-01   2.92880E-01
  opls_861    SA    32.0670     0.000    A    3.60000E-01   1.48532E+00
  opls_862    CS    12.0110     0.000    A    3.55000E-01   2.92880E-01
  opls_863    OS    15.9990     0.000    A    2.90000E-01   5.85760E-01
  opls_864    CT    12.0110     0.000    A    3.50000E-01   2.76144E-01
  opls_865    CS    12.0110     0.000    A    3.55000E-01   2.92880E-01
  opls_866    CS    12.0110     0.000    A    3.55000E-01   2.92880E-01
  opls_867    CS    12.0110     0.000    A    3.55000E-01   2.92880E-01
  opls_868    SA    32.0670     0.000    A    3.60000E-01   1.48532E+00
  opls_869    CS    12.0110     0.000    A    3.55000E-01   2.92880E-01
  opls_870    CP    12.0110     0.000    A    3.55000E-01   2.92880E-01
  opls_871    CS    12.0110     0.000    A    3.55000E-01   2.92880E-01
  opls_872    HA     1.0080     0.000    A    2.42000E-01   1.25520E-01
  opls_873    HA     1.0080     0.000    A    2.42000E-01   1.25520E-01
  opls_874    HA     1.0080     0.000    A    2.42000E-01   1.25520E-01
  opls_875    HC     1.0080     0.000    A    2.50000E-01   1.25520E-01
  opls_876    HC     1.0080     0.000    A    2.50000E-01   1.25520E-01
  opls_877    HC     1.0080     0.000    A    2.50000E-01   1.25520E-01
  opls_878    HA     1.0080     0.000    A    2.42000E-01   1.25520E-01
  opls_879    HC     1.0080     0.000    A    2.50000E-01   1.25520E-01
  opls_880    HC     1.0080     0.000    A    2.50000E-01   1.25520E-01
  opls_881    HC     1.0080     0.000    A    2.50000E-01   1.25520E-01
  opls_882    HA     1.0080     0.000    A    2.42000E-01   1.25520E-01
  opls_883    HA     1.0080     0.000    A    2.42000E-01   1.25520E-01
  opls_884    HA     1.0080     0.000    A    2.42000E-01   1.25520E-01
  opls_885    HA     1.0080     0.000    A    2.42000E-01   1.25520E-01
  opls_886    HA     1.0080     0.000    A    2.42000E-01   1.25520E-01
  opls_887    HC     1.0080     0.000    A    2.50000E-01   1.25520E-01
  opls_888    HC     1.0080     0.000    A    2.50000E-01   1.25520E-01
  opls_889    HC     1.0080     0.000    A    2.50000E-01   1.25520E-01
  opls_890    HA     1.0080     0.000    A    2.42000E-01   1.25520E-01
  opls_891    HC     1.0080     0.000    A    2.50000E-01   1.25520E-01
  opls_892    HC     1.0080     0.000    A    2.50000E-01   1.25520E-01
  opls_893    HC     1.0080     0.000    A    2.50000E-01   1.25520E-01
  opls_894    HA     1.0080     0.000    A    2.42000E-01   1.25520E-01
  opls_895    HA     1.0080     0.000    A    2.42000E-01   1.25520E-01
  opls_896    HA     1.0080     0.000    A    2.42000E-01   1.25520E-01
  opls_897    HA     1.0080     0.000    A    2.42000E-01   1.25520E-01
  opls_898    HA     1.0080     0.000    A    2.42000E-01   1.25520E-01
  opls_899    HC     1.0080     0.000    A    2.50000E-01   1.25520E-01
 opls_9500    HC     1.0080     0.000    A    2.50000E-01   1.25520E-01
 opls_9501    HC     1.0080     0.000    A    2.50000E-01   1.25520E-01
 opls_9502    HA     1.0080     0.000    A    2.42000E-01   1.25520E-01
 opls_9503    HC     1.0080     0.000    A    2.50000E-01   1.25520E-01
 opls_9504    HC     1.0080     0.000    A    2.50000E-01   1.25520E-01
 opls_9505    HC     1.0080     0.000    A    2.50000E-01   1.25520E-01
 opls_9506    HA     1.0080     0.000    A    2.42000E-01   1.25520E-01
 opls_9507    HA     1.0080     0.000    A    2.42000E-01   1.25520E-01
 opls_9508    HA     1.0080     0.000    A    2.42000E-01   1.25520E-01
 opls_9509    HA     1.0080     0.000    A    2.42000E-01   1.25520E-01
[ moleculetype ]
; Name               nrexcl
  UNK                  3
[ atoms ]
; nr      type  resnr   residue    atom   cgnr     charge       mass
   1  opls_870      1      UNK     C20      1  -0.364927    12.0110
   2  opls_871      1      UNK     C21      1  -0.109687    12.0110
   3  opls_868      1      UNK     S1Y      1   0.281702    32.0670
   4  opls_869      1      UNK     C1Z      1  -0.136647    12.0110
   5  opls_872      1      UNK     H22      1   0.152956     1.0080
   6  opls_867      1      UNK     C1X      1  -0.188267    12.0110
   7  opls_873      1      UNK     H23      1   0.161989     1.0080
   8  opls_865      1      UNK     C1V      1  -0.178020    12.0110
   9  opls_866      1      UNK     C1W      1  -0.190147    12.0110
  10  opls_861      1      UNK     S1R      1   0.328690    32.0670
  11  opls_862      1      UNK     C1S      1   0.332897    12.0110
  12  opls_874      1      UNK     H24      1   0.163135     1.0080
  13  opls_860      1      UNK     C1Q      1  -0.216402    12.0110
  14  opls_863      1      UNK     O1T      1  -0.467352    15.9990
  15  opls_856      1      UNK     C1M      1  -0.213307    12.0110
  16  opls_864      1      UNK     C1U      1  -0.272655    12.0110
  17  opls_857      1      UNK     C1N      1   0.332980    12.0110
  18  opls_854      1      UNK     S1J      1   0.330003    32.0670
  19  opls_875      1      UNK     H25      1   0.168506     1.0080
  20  opls_876      1      UNK     H26      1   0.169110     1.0080
  21  opls_877      1      UNK     H27      1   0.186748     1.0080
  22  opls_855      1      UNK     C1K      1  -0.192208    12.0110
  23  opls_858      1      UNK     O1O      1  -0.467556    15.9990
  24  opls_853      1      UNK     C1I      1  -0.188106    12.0110
  25  opls_878      1      UNK     H28      1   0.164546     1.0080
  26  opls_859      1      UNK     C1P      1  -0.272784    12.0110
  27  opls_851      1      UNK     C1G      1  -0.170432    12.0110
  28  opls_879      1      UNK     H29      1   0.168712     1.0080
  29  opls_880      1      UNK     H2A      1   0.168784     1.0080
  30  opls_881      1      UNK     H2B      1   0.186878     1.0080
  31  opls_852      1      UNK     C1H      1  -0.149320    12.0110
  32  opls_849      1      UNK     S1E      1   0.290545    32.0670
  33  opls_850      1      UNK     C1F      1  -0.151315    12.0110
  34  opls_882      1      UNK     H2C      1   0.164169     1.0080
  35  opls_848      1      UNK     C1D      1  -0.168435    12.0110
  36  opls_883      1      UNK     H2D      1   0.162906     1.0080
  37  opls_846      1      UNK     C1B      1  -0.168083    12.0110
  38  opls_847      1      UNK     C1C      1  -0.151428    12.0110
  39  opls_844      1      UNK     S19      1   0.290780    32.0670
  40  opls_845      1      UNK     C1A      1  -0.149194    12.0110
  41  opls_884      1      UNK     H2E      1   0.163081     1.0080
  42  opls_843      1      UNK     C18      1  -0.170705    12.0110
  43  opls_885      1      UNK     H2F      1   0.164237     1.0080
  44  opls_841      1      UNK     C16      1  -0.187519    12.0110
  45  opls_842      1      UNK     C17      1  -0.192345    12.0110
  46  opls_837      1      UNK     S12      1   0.330618    32.0670
  47  opls_838      1      UNK     C13      1   0.333657    12.0110
  48  opls_886      1      UNK     H2G      1   0.164906     1.0080
  49  opls_801      1      UNK     C01      1  -0.214175    12.0110
  50  opls_839      1      UNK     O14      1  -0.467562    15.9990
  51  opls_800      1      UNK     C00      1  -0.214175    12.0110
  52  opls_840      1      UNK     C15      1  -0.273063    12.0110
  53  opls_802      1      UNK     C02      1   0.333657    12.0110
  54  opls_803      1      UNK     S03      1   0.330618    32.0670
  55  opls_887      1      UNK     H2H      1   0.169106     1.0080
  56  opls_888      1      UNK     H2I      1   0.169228     1.0080
  57  opls_889      1      UNK     H2J      1   0.187190     1.0080
  58  opls_804      1      UNK     C04      1  -0.192345    12.0110
  59  opls_805      1      UNK     O05      1  -0.467562    15.9990
  60  opls_806      1      UNK     C06      1  -0.187519    12.0110
  61  opls_890      1      UNK     H2K      1   0.164906     1.0080
  62  opls_807      1      UNK     C07      1  -0.273063    12.0110
  63  opls_808      1      UNK     C08      1  -0.170705    12.0110
  64  opls_891      1      UNK     H2M      1   0.169106     1.0080
  65  opls_892      1      UNK     H2N      1   0.169228     1.0080
  66  opls_893      1      UNK     H2O      1   0.187190     1.0080
  67  opls_809      1      UNK     C09      1  -0.149194    12.0110
  68  opls_810      1      UNK     S0A      1   0.290780    32.0670
  69  opls_811      1      UNK     C0B      1  -0.151429    12.0110
  70  opls_894      1      UNK     H2P      1   0.164237     1.0080
  71  opls_812      1      UNK     C0C      1  -0.168082    12.0110
  72  opls_895      1      UNK     H2Q      1   0.163081     1.0080
  73  opls_813      1      UNK     C0D      1  -0.168434    12.0110
  74  opls_814      1      UNK     C0E      1  -0.151315    12.0110
  75  opls_815      1      UNK     S0F      1   0.290545    32.0670
  76  opls_816      1      UNK     C0G      1  -0.149320    12.0110
  77  opls_896      1      UNK     H2R      1   0.162906     1.0080
  78  opls_817      1      UNK     C0H      1  -0.170432    12.0110
  79  opls_897      1      UNK     H2S      1   0.164169     1.0080
  80  opls_818      1      UNK     C0I      1  -0.188106    12.0110
  81  opls_819      1      UNK     C0J      1  -0.192207    12.0110
  82  opls_820      1      UNK     S0K      1   0.330003    32.0670
  83  opls_821      1      UNK     C0M      1   0.332980    12.0110
  84  opls_898      1      UNK     H2T      1   0.164546     1.0080
  85  opls_822      1      UNK     C0N      1  -0.213307    12.0110
  86  opls_823      1      UNK     O0O      1  -0.467556    15.9990
  87  opls_824      1      UNK     C0P      1  -0.216402    12.0110
  88  opls_825      1      UNK     C0Q      1  -0.272784    12.0110
  89  opls_826      1      UNK     C0R      1   0.332897    12.0110
  90  opls_827      1      UNK     S0S      1   0.328690    32.0670
  91  opls_899      1      UNK     H2U      1   0.168712     1.0080
  92 opls_9500      1      UNK     H2V      1   0.168784     1.0080
  93 opls_9501      1      UNK     H2W      1   0.186878     1.0080
  94  opls_828      1      UNK     C0T      1  -0.190147    12.0110
  95  opls_829      1      UNK     O0U      1  -0.467352    15.9990
  96  opls_830      1      UNK     C0V      1  -0.178020    12.0110
  97 opls_9502      1      UNK     H2X      1   0.163135     1.0080
  98  opls_831      1      UNK     C0W      1  -0.272655    12.0110
  99  opls_832      1      UNK     C0X      1  -0.188267    12.0110
 100 opls_9503      1      UNK     H2Y      1   0.168506     1.0080
 101 opls_9504      1      UNK     H2Z      1   0.169110     1.0080
 102 opls_9505      1      UNK     H30      1   0.186748     1.0080
 103  opls_833      1      UNK     C0Y      1  -0.136648    12.0110
 104  opls_834      1      UNK     S0Z      1   0.281702    32.0670
 105  opls_835      1      UNK     C10      1  -0.109687    12.0110
 106 opls_9506      1      UNK     H31      1   0.161989     1.0080
 107  opls_836      1      UNK     C11      1  -0.364927    12.0110
 108 opls_9507      1      UNK     H32      1   0.152956     1.0080
 109 opls_9508      1      UNK     H33      1   0.183580     1.0080
 110 opls_9509      1      UNK     H34      1   0.183580     1.0080
[ bonds ]
;  ai    aj   funct      c0       c1
   49   51    1      0.1424    392459.200
   53   51    1      0.1424    392459.200
   54   51    1      0.1760    209200.000
   58   53    1      0.1424    392459.200
   59   53    1      0.1364    376560.000
   60   58    1      0.1424    392459.200
   62   59    1      0.1410    267776.000
   63   60    1      0.1424    392459.200
   67   63    1      0.1424    392459.200
   68   63    1      0.1760    209200.000
   69   67    1      0.1424    392459.200
   71   69    1      0.1424    392459.200
   73   71    1      0.1424    392459.200
   74   73    1      0.1424    392459.200
   75   73    1      0.1760    209200.000
   76   74    1      0.1424    392459.200
   78   76    1      0.1424    392459.200
   80   78    1      0.1424    392459.200
   81   80    1      0.1424    392459.200
   82   80    1      0.1760    209200.000
   83   81    1      0.1424    392459.200
   85   83    1      0.1424    392459.200
   86   83    1      0.1364    376560.000
   87   85    1      0.1424    392459.200
   88   86    1      0.1410    267776.000
   89   87    1      0.1424    392459.200
   90   87    1      0.1760    209200.000
   94   89    1      0.1424    392459.200
   95   89    1      0.1364    376560.000
   96   94    1      0.1424    392459.200
   98   95    1      0.1410    267776.000
   99   96    1      0.1424    392459.200
  103   99    1      0.1424    392459.200
  104   99    1      0.1760    209200.000
  105  103    1      0.1424    392459.200
  107  104    1      0.1740    209200.000
   46   49    1      0.1760    209200.000
   47   49    1      0.1424    392459.200
   50   47    1      0.1364    376560.000
   52   50    1      0.1410    267776.000
   44   46    1      0.1760    209200.000
   45   44    1      0.1424    392459.200
   42   44    1      0.1424    392459.200
   39   42    1      0.1760    209200.000
   40   42    1      0.1424    392459.200
   37   39    1      0.1760    209200.000
   38   37    1      0.1424    392459.200
   35   37    1      0.1424    392459.200
   32   35    1      0.1760    209200.000
   33   35    1      0.1424    392459.200
   27   32    1      0.1760    209200.000
   31   27    1      0.1424    392459.200
   24   27    1      0.1424    392459.200
   18   24    1      0.1760    209200.000
   22   24    1      0.1424    392459.200
   15   18    1      0.1760    209200.000
   17   15    1      0.1424    392459.200
   23   17    1      0.1364    376560.000
   26   23    1      0.1410    267776.000
   13   15    1      0.1424    392459.200
   10   13    1      0.1760    209200.000
   11   13    1      0.1424    392459.200
   14   11    1      0.1364    376560.000
   16   14    1      0.1410    267776.000
    8   10    1      0.1760    209200.000
    9    8    1      0.1424    392459.200
    6    8    1      0.1424    392459.200
    3    6    1      0.1760    209200.000
    4    6    1      0.1424    392459.200
    1    3    1      0.1740    209200.000
    2    1    1      0.1380    456892.800
    5    2    1      0.1080    307105.600
    7    4    1      0.1080    307105.600
   12    9    1      0.1080    307105.600
   19   16    1      0.1090    284512.000
   20   16    1      0.1090    284512.000
   21   16    1      0.1090    284512.000
   25   22    1      0.1080    307105.600
   28   26    1      0.1090    284512.000
   29   26    1      0.1090    284512.000
   30   26    1      0.1090    284512.000
   34   31    1      0.1080    307105.600
   36   33    1      0.1080    307105.600
   41   38    1      0.1080    307105.600
   43   40    1      0.1080    307105.600
   48   45    1      0.1080    307105.600
   55   52    1      0.1090    284512.000
   56   52    1      0.1090    284512.000
   57   52    1      0.1090    284512.000
   61   58    1      0.1080    307105.600
   64   62    1      0.1090    284512.000
   65   62    1      0.1090    284512.000
   66   62    1      0.1090    284512.000
   70   67    1      0.1080    307105.600
   72   69    1      0.1080    307105.600
   77   74    1      0.1080    307105.600
   79   76    1      0.1080    307105.600
   84   81    1      0.1080    307105.600
   91   88    1      0.1090    284512.000
   92   88    1      0.1090    284512.000
   93   88    1      0.1090    284512.000
   97   94    1      0.1080    307105.600
  100   98    1      0.1090    284512.000
  101   98    1      0.1090    284512.000
  102   98    1      0.1090    284512.000
  106  103    1      0.1080    307105.600
  108  105    1      0.1080    307105.600
  109    1    1      0.1080    307105.600
  110  107    1      0.1080    307105.600
   60   54    1      0.1760    209200.000
   71   68    1      0.1760    209200.000
   78   75    1      0.1760    209200.000
   85   82    1      0.1760    209200.000
   96   90    1      0.1760    209200.000
  107  105    1      0.1380    456892.800
   45   47    1      0.1424    392459.200
   38   40    1      0.1424    392459.200
   31   33    1      0.1424    392459.200
   17   22    1      0.1424    392459.200
    9   11    1      0.1424    392459.200
    2    4    1      0.1424    392459.200
[angles]
;  ai    aj   ak  funct      c0       c1 
   53   51   49    1       120.000    527.184
   54   51   49    1       119.400    711.280
   58   53   51    1       120.000    527.184
   59   53   51    1       120.000    585.760
   60   58   53    1       120.000    527.184
   62   59   53    1       111.000    627.600
   63   60   58    1       120.000    527.184
   67   63   60    1       120.000    527.184
   68   63   60    1       119.400    711.280
   69   67   63    1       120.000    527.184
   71   69   67    1       120.000    527.184
   73   71   69    1       120.000    527.184
   74   73   71    1       120.000    527.184
   75   73   71    1       119.400    711.280
   76   74   73    1       120.000    527.184
   78   76   74    1       120.000    527.184
   80   78   76    1       120.000    527.184
   81   80   78    1       120.000    527.184
   82   80   78    1       119.400    711.280
   83   81   80    1       120.000    527.184
   85   83   81    1       120.000    527.184
   86   83   81    1       120.000    585.760
   87   85   83    1       120.000    527.184
   88   86   83    1       111.000    627.600
   89   87   85    1       120.000    527.184
   90   87   85    1       119.400    711.280
   94   89   87    1       120.000    527.184
   95   89   87    1       120.000    585.760
   96   94   89    1       120.000    527.184
   98   95   89    1       111.000    627.600
   99   96   94    1       120.000    527.184
  103   99   96    1       120.000    527.184
  104   99   96    1       119.400    711.280
  105  103   99    1       120.000    527.184
  107  104   99    1       106.390    829.185
   46   49   51    1       119.400    711.280
   47   49   51    1       120.000    527.184
   50   47   49    1       120.000    585.760
   52   50   47    1       111.000    627.600
   44   46   49    1       106.390    829.185
   45   44   46    1       119.400    711.280
   42   44   46    1       119.400    711.280
   39   42   44    1       119.400    711.280
   40   42   44    1       120.000    527.184
   37   39   42    1       106.390    829.185
   38   37   39    1       119.400    711.280
   35   37   39    1       119.400    711.280
   32   35   37    1       119.400    711.280
   33   35   37    1       120.000    527.184
   27   32   35    1       106.390    829.185
   31   27   32    1       119.400    711.280
   24   27   32    1       119.400    711.280
   18   24   27    1       119.400    711.280
   22   24   27    1       120.000    527.184
   15   18   24    1       106.390    829.185
   17   15   18    1       119.400    711.280
   23   17   15    1       120.000    585.760
   26   23   17    1       111.000    627.600
   13   15   18    1       119.400    711.280
   10   13   15    1       119.400    711.280
   11   13   15    1       120.000    527.184
   14   11   13    1       120.000    585.760
   16   14   11    1       111.000    627.600
    8   10   13    1       106.390    829.185
    9    8   10    1       119.400    711.280
    6    8   10    1       119.400    711.280
    3    6    8    1       119.400    711.280
    4    6    8    1       120.000    527.184
    1    3    6    1       106.390    829.185
    2    1    3    1       111.000    585.760
    5    2    1    1       123.100    292.880
    7    4    6    1       127.500    292.880
   12    9    8    1       127.500    292.880
   19   16   14    1       109.500    292.880
   20   16   14    1       109.500    292.880
   21   16   14    1       109.500    292.880
   25   22   24    1       127.500    292.880
   28   26   23    1       109.500    292.880
   29   26   23    1       109.500    292.880
   30   26   23    1       109.500    292.880
   34   31   27    1       127.500    292.880
   36   33   35    1       127.500    292.880
   41   38   37    1       127.500    292.880
   43   40   42    1       127.500    292.880
   48   45   44    1       127.500    292.880
   55   52   50    1       109.500    292.880
   56   52   50    1       109.500    292.880
   57   52   50    1       109.500    292.880
   61   58   53    1       127.500    292.880
   64   62   59    1       109.500    292.880
   65   62   59    1       109.500    292.880
   66   62   59    1       109.500    292.880
   70   67   63    1       127.500    292.880
   72   69   67    1       127.500    292.880
   77   74   73    1       127.500    292.880
   79   76   74    1       127.500    292.880
   84   81   80    1       127.500    292.880
   91   88   86    1       109.500    292.880
   92   88   86    1       109.500    292.880
   93   88   86    1       109.500    292.880
   97   94   89    1       127.500    292.880
  100   98   95    1       109.500    292.880
  101   98   95    1       109.500    292.880
  102   98   95    1       109.500    292.880
  106  103   99    1       127.500    292.880
  108  105  103    1       127.500    292.880
  109    1    3    1       120.000    292.880
  110  107  104    1       120.000    292.880
   54   51   53    1       119.400    711.280
   59   53   58    1       120.000    585.760
   61   58   60    1       127.500    292.880
   51   54   60    1       106.390    829.185
   54   60   63    1       119.400    711.280
   68   63   67    1       119.400    711.280
   70   67   69    1       127.500    292.880
   72   69   71    1       127.500    292.880
   63   68   71    1       106.390    829.185
   68   71   73    1       119.400    711.280
   75   73   74    1       119.400    711.280
   77   74   76    1       127.500    292.880
   79   76   78    1       127.500    292.880
   73   75   78    1       106.390    829.185
   75   78   80    1       119.400    711.280
   82   80   81    1       119.400    711.280
   84   81   83    1       127.500    292.880
   86   83   85    1       120.000    585.760
   80   82   85    1       106.390    829.185
   82   85   87    1       119.400    711.280
   90   87   89    1       119.400    711.280
   95   89   94    1       120.000    585.760
   97   94   96    1       127.500    292.880
   87   90   96    1       106.390    829.185
   90   96   99    1       119.400    711.280
  104   99  103    1       119.400    711.280
  106  103  105    1       127.500    292.880
  103  105  107    1       112.300    585.760
  108  105  107    1       123.100    292.880
   47   49   46    1       119.400    711.280
   45   47   50    1       120.000    585.760
   42   44   45    1       120.000    527.184
   49   47   45    1       120.000    527.184
   40   42   39    1       119.400    711.280
   35   37   38    1       120.000    527.184
   42   40   38    1       120.000    527.184
   43   40   38    1       127.500    292.880
   33   35   32    1       119.400    711.280
   24   27   31    1       120.000    527.184
   35   33   31    1       120.000    527.184
   36   33   31    1       127.500    292.880
   22   24   18    1       119.400    711.280
   13   15   17    1       120.000    527.184
   24   22   17    1       120.000    527.184
   25   22   17    1       127.500    292.880
   22   17   23    1       120.000    585.760
   11   13   10    1       119.400    711.280
    9   11   14    1       120.000    585.760
    6    8    9    1       120.000    527.184
   13   11    9    1       120.000    527.184
    4    6    3    1       119.400    711.280
  109    1    2    1       128.200    292.880
    6    4    2    1       120.000    527.184
    7    4    2    1       127.500    292.880
    4    2    5    1       127.500    292.880
   11    9   12    1       127.500    292.880
   20   16   19    1       107.800    276.144
   21   16   19    1       107.800    276.144
   21   16   20    1       107.800    276.144
   29   26   28    1       107.800    276.144
   30   26   28    1       107.800    276.144
   30   26   29    1       107.800    276.144
   33   31   34    1       127.500    292.880
   40   38   41    1       127.500    292.880
   47   45   48    1       127.500    292.880
   56   52   55    1       107.800    276.144
   57   52   55    1       107.800    276.144
   57   52   56    1       107.800    276.144
   65   62   64    1       107.800    276.144
   66   62   64    1       107.800    276.144
   66   62   65    1       107.800    276.144
   92   88   91    1       107.800    276.144
   93   88   91    1       107.800    276.144
   93   88   92    1       107.800    276.144
  101   98  100    1       107.800    276.144
  102   98  100    1       107.800    276.144
  102   98  101    1       107.800    276.144
  105  107  110    1       128.200    292.880
   58   60   54    1       119.400    711.280
   69   71   68    1       119.400    711.280
   76   78   75    1       119.400    711.280
   83   85   82    1       119.400    711.280
   94   96   90    1       119.400    711.280
  104  107  105    1       111.000    585.760
   44   45   47    1       120.000    527.184
   37   38   40    1       120.000    527.184
   27   31   33    1       120.000    527.184
   15   17   22    1       120.000    527.184
    8    9   11    1       120.000    527.184
    1    2    4    1       112.300    585.760
[ dihedrals ]
;  PROPER DIHEDRAL ANGLES
;  ai    aj   ak   al funct      c0       c1      c2      c3       c4     c5
   58   53   51   49    3      30.334   0.000  -30.334  -0.000  -0.000   0.000
   59   53   51   49        3       9.079   0.000  -9.079  -0.000  -0.000   0.000
   60   58   53   51        3      30.334   0.000 -30.334  -0.000  -0.000   0.000
   62   59   53   51        3      14.100   0.000  -9.079  -0.000  -5.021   0.000
   63   60   58   53        3      30.334   0.000 -30.334  -0.000  -0.000   0.000
   67   63   60   58        3      30.334   0.000 -30.334  -0.000  -0.000   0.000
   68   63   60   58        3      30.334   0.000 -30.334  -0.000  -0.000   0.000
   69   67   63   60        3      30.334   0.000 -30.334  -0.000  -0.000   0.000
   71   69   67   63        3      30.334   0.000 -30.334  -0.000  -0.000   0.000
   73   71   69   67        3      30.334   0.000 -30.334  -0.000  -0.000   0.000
   74   73   71   69        3      30.334   0.000 -30.334  -0.000  -0.000   0.000
   75   73   71   69        3      30.334   0.000 -30.334  -0.000  -0.000   0.000
   76   74   73   71        3      30.334   0.000 -30.334  -0.000  -0.000   0.000
   78   76   74   73        3      30.334   0.000 -30.334  -0.000  -0.000   0.000
   80   78   76   74        3      30.334   0.000 -30.334  -0.000  -0.000   0.000
   81   80   78   76        3      30.334   0.000 -30.334  -0.000  -0.000   0.000
   82   80   78   76        3      30.334   0.000 -30.334  -0.000  -0.000   0.000
   83   81   80   78        3      30.334   0.000 -30.334  -0.000  -0.000   0.000
   85   83   81   80        3      30.334   0.000 -30.334  -0.000  -0.000   0.000
   86   83   81   80        3       9.079   0.000  -9.079  -0.000  -0.000   0.000
   87   85   83   81        3      30.334   0.000 -30.334  -0.000  -0.000   0.000
   88   86   83   81        3      14.100   0.000  -9.079  -0.000  -5.021   0.000
   89   87   85   83        3      30.334   0.000 -30.334  -0.000  -0.000   0.000
   90   87   85   83        3      30.334   0.000 -30.334  -0.000  -0.000   0.000
   94   89   87   85        3      30.334   0.000 -30.334  -0.000  -0.000   0.000
   95   89   87   85        3       9.079   0.000  -9.079  -0.000  -0.000   0.000
   96   94   89   87        3      30.334   0.000 -30.334  -0.000  -0.000   0.000
   98   95   89   87        3      14.100   0.000  -9.079  -0.000  -5.021   0.000
   99   96   94   89        3      30.334   0.000 -30.334  -0.000  -0.000   0.000
  103   99   96   94        3      30.334   0.000 -30.334  -0.000  -0.000   0.000
  104   99   96   94        3      30.334   0.000 -30.334  -0.000  -0.000   0.000
  105  103   99   96        3      30.334   0.000 -30.334  -0.000  -0.000   0.000
  107  104   99   96        3      30.334   0.000 -30.334  -0.000  -0.000   0.000
   46   49   51   53        3       0.000   0.000   0.000   0.000   0.000   0.000
   47   49   51   53        3       0.000   0.000   0.000   0.000   0.000   0.000
   50   47   49   51        3       9.079   0.000  -9.079  -0.000  -0.000   0.000
   52   50   47   49        3      14.100   0.000  -9.079  -0.000  -5.021   0.000
   44   46   49   51        3      30.334   0.000 -30.334  -0.000  -0.000   0.000
   45   44   46   49        3      30.334   0.000 -30.334  -0.000  -0.000   0.000
   42   44   46   49        3      30.334   0.000 -30.334  -0.000  -0.000   0.000
   39   42   44   46        3      30.334   0.000 -30.334  -0.000  -0.000   0.000
   40   42   44   46        3      30.334   0.000 -30.334  -0.000  -0.000   0.000
   37   39   42   44        3      30.334   0.000 -30.334  -0.000  -0.000   0.000
   38   37   39   42        3      30.334   0.000 -30.334  -0.000  -0.000   0.000
   35   37   39   42        3      30.334   0.000 -30.334  -0.000  -0.000   0.000
   32   35   37   39        3      30.334   0.000 -30.334  -0.000  -0.000   0.000
   33   35   37   39        3      30.334   0.000 -30.334  -0.000  -0.000   0.000
   27   32   35   37        3      30.334   0.000 -30.334  -0.000  -0.000   0.000
   31   27   32   35        3      30.334   0.000 -30.334  -0.000  -0.000   0.000
   24   27   32   35        3      30.334   0.000 -30.334  -0.000  -0.000   0.000
   18   24   27   32        3      30.334   0.000 -30.334  -0.000  -0.000   0.000
   22   24   27   32        3      30.334   0.000 -30.334  -0.000  -0.000   0.000
   15   18   24   27        3      30.334   0.000 -30.334  -0.000  -0.000   0.000
   17   15   18   24        3      30.334   0.000 -30.334  -0.000  -0.000   0.000
   23   17   15   18        3       9.079   0.000  -9.079  -0.000  -0.000   0.000
   26   23   17   15        3      14.100   0.000  -9.079  -0.000  -5.021   0.000
   13   15   18   24        3      30.334   0.000 -30.334  -0.000  -0.000   0.000
   10   13   15   18        3      30.334   0.000 -30.334  -0.000  -0.000   0.000
   11   13   15   18        3      30.334   0.000 -30.334  -0.000  -0.000   0.000
   14   11   13   15        3       9.079   0.000  -9.079  -0.000  -0.000   0.000
   16   14   11   13        3      14.100   0.000  -9.079  -0.000  -5.021   0.000
    8   10   13   15        3      30.334   0.000 -30.334  -0.000  -0.000   0.000
    9    8   10   13        3      30.334   0.000 -30.334  -0.000  -0.000   0.000
    6    8   10   13        3      30.334   0.000 -30.334  -0.000  -0.000   0.000
    3    6    8   10        3      30.334   0.000 -30.334  -0.000  -0.000   0.000
    4    6    8   10        3      30.334   0.000 -30.334  -0.000  -0.000   0.000
    1    3    6    8        3      30.334   0.000 -30.334  -0.000  -0.000   0.000
    2    1    3    6        3      30.334   0.000 -30.334  -0.000  -0.000   0.000
    5    2    1    3        3      44.978   0.000 -44.978  -0.000  -0.000   0.000
    7    4    6    8        3      30.334   0.000 -30.334  -0.000  -0.000   0.000
   12    9    8   10        3      30.334   0.000 -30.334  -0.000  -0.000   0.000
   19   16   14   11        3       1.590   4.770   0.000  -6.360  -0.000   0.000
   20   16   14   11        3       1.590   4.770   0.000  -6.360  -0.000   0.000
   21   16   14   11        3       1.590   4.770   0.000  -6.360  -0.000   0.000
   25   22   24   27        3      30.334   0.000 -30.334  -0.000  -0.000   0.000
   28   26   23   17        3       1.590   4.770   0.000  -6.360  -0.000   0.000
   29   26   23   17        3       1.590   4.770   0.000  -6.360  -0.000   0.000
   30   26   23   17        3       1.590   4.770   0.000  -6.360  -0.000   0.000
   34   31   27   32        3      30.334   0.000 -30.334  -0.000  -0.000   0.000
   36   33   35   37        3      30.334   0.000 -30.334  -0.000  -0.000   0.000
   41   38   37   39        3      30.334   0.000 -30.334  -0.000  -0.000   0.000
   43   40   42   44        3      30.334   0.000 -30.334  -0.000  -0.000   0.000
   48   45   44   46        3      30.334   0.000 -30.334  -0.000  -0.000   0.000
   55   52   50   47        3       1.590   4.770   0.000  -6.360  -0.000   0.000
   56   52   50   47        3       1.590   4.770   0.000  -6.360  -0.000   0.000
   57   52   50   47        3       1.590   4.770   0.000  -6.360  -0.000   0.000
   61   58   53   51        3      30.334   0.000 -30.334  -0.000  -0.000   0.000
   64   62   59   53        3       1.590   4.770   0.000  -6.360  -0.000   0.000
   65   62   59   53        3       1.590   4.770   0.000  -6.360  -0.000   0.000
   66   62   59   53        3       1.590   4.770   0.000  -6.360  -0.000   0.000
   70   67   63   60        3      30.334   0.000 -30.334  -0.000  -0.000   0.000
   72   69   67   63        3      30.334   0.000 -30.334  -0.000  -0.000   0.000
   77   74   73   71        3      30.334   0.000 -30.334  -0.000  -0.000   0.000
   79   76   74   73        3      30.334   0.000 -30.334  -0.000  -0.000   0.000
   84   81   80   78        3      30.334   0.000 -30.334  -0.000  -0.000   0.000
   91   88   86   83        3       1.590   4.770   0.000  -6.360  -0.000   0.000
   92   88   86   83        3       1.590   4.770   0.000  -6.360  -0.000   0.000
   93   88   86   83        3       1.590   4.770   0.000  -6.360  -0.000   0.000
   97   94   89   87        3      30.334   0.000 -30.334  -0.000  -0.000   0.000
  100   98   95   89        3       1.590   4.770   0.000  -6.360  -0.000   0.000
  101   98   95   89        3       1.590   4.770   0.000  -6.360  -0.000   0.000
  102   98   95   89        3       1.590   4.770   0.000  -6.360  -0.000   0.000
  106  103   99   96        3      30.334   0.000 -30.334  -0.000  -0.000   0.000
  108  105  103   99        3      30.334   0.000 -30.334  -0.000  -0.000   0.000
  109    1    3    6        3      30.334   0.000 -30.334  -0.000  -0.000   0.000
  110  107  104   99        3      30.334   0.000 -30.334  -0.000  -0.000   0.000
   60   54   51   49        3      30.334   0.000 -30.334  -0.000  -0.000   0.000
   60   54   51   53        3      30.334   0.000 -30.334  -0.000  -0.000   0.000
   46   49   51   54        3       0.000   0.000   0.000   0.000   0.000   0.000
   47   49   51   54        3       0.000   0.000   0.000   0.000   0.000   0.000
   58   53   51   54        3      30.334   0.000 -30.334  -0.000  -0.000   0.000
   59   53   51   54        3       9.079   0.000  -9.079  -0.000  -0.000   0.000
   62   59   53   58        3      14.100   0.000  -9.079  -0.000  -5.021   0.000
   60   58   53   59        3       9.079   0.000  -9.079  -0.000  -0.000   0.000
   61   58   53   59        3       9.079   0.000  -9.079  -0.000  -0.000   0.000
   61   58   60   63        3      30.334   0.000 -30.334  -0.000  -0.000   0.000
   51   54   60   63        3      30.334   0.000 -30.334  -0.000  -0.000   0.000
   54   60   63   67        3      30.334   0.000 -30.334  -0.000  -0.000   0.000
   71   68   63   67        3      30.334   0.000 -30.334  -0.000  -0.000   0.000
   54   60   63   68        3      30.334   0.000 -30.334  -0.000  -0.000   0.000
   69   67   63   68        3      30.334   0.000 -30.334  -0.000  -0.000   0.000
   70   67   63   68        3      30.334   0.000 -30.334  -0.000  -0.000   0.000
   70   67   69   71        3      30.334   0.000 -30.334  -0.000  -0.000   0.000
   60   63   68   71        3      30.334   0.000 -30.334  -0.000  -0.000   0.000
   72   69   71   73        3      30.334   0.000 -30.334  -0.000  -0.000   0.000
   63   68   71   73        3      30.334   0.000 -30.334  -0.000  -0.000   0.000
   68   71   73   74        3      30.334   0.000 -30.334  -0.000  -0.000   0.000
   78   75   73   74        3      30.334   0.000 -30.334  -0.000  -0.000   0.000
   68   71   73   75        3      30.334   0.000 -30.334  -0.000  -0.000   0.000
   76   74   73   75        3      30.334   0.000 -30.334  -0.000  -0.000   0.000
   77   74   73   75        3      30.334   0.000 -30.334  -0.000  -0.000   0.000
   77   74   76   78        3      30.334   0.000 -30.334  -0.000  -0.000   0.000
   71   73   75   78        3      30.334   0.000 -30.334  -0.000  -0.000   0.000
   79   76   78   80        3      30.334   0.000 -30.334  -0.000  -0.000   0.000
   73   75   78   80        3      30.334   0.000 -30.334  -0.000  -0.000   0.000
   75   78   80   81        3      30.334   0.000 -30.334  -0.000  -0.000   0.000
   85   82   80   81        3      30.334   0.000 -30.334  -0.000  -0.000   0.000
   75   78   80   82        3      30.334   0.000 -30.334  -0.000  -0.000   0.000
   83   81   80   82        3      30.334   0.000 -30.334  -0.000  -0.000   0.000
   84   81   80   82        3      30.334   0.000 -30.334  -0.000  -0.000   0.000
   84   81   83   85        3      30.334   0.000 -30.334  -0.000  -0.000   0.000
   88   86   83   85        3      14.100   0.000  -9.079  -0.000  -5.021   0.000
   78   80   82   85        3      30.334   0.000 -30.334  -0.000  -0.000   0.000
   84   81   83   86        3       9.079   0.000  -9.079  -0.000  -0.000   0.000
   82   85   83   86        3       9.079   0.000  -9.079  -0.000  -0.000   0.000
   87   85   83   86        3       9.079   0.000  -9.079  -0.000  -0.000   0.000
   80   82   85   87        3      30.334   0.000 -30.334  -0.000  -0.000   0.000
   82   85   87   89        3      30.334   0.000 -30.334  -0.000  -0.000   0.000
   96   90   87   89        3      30.334   0.000 -30.334  -0.000  -0.000   0.000
   82   85   87   90        3      30.334   0.000 -30.334  -0.000  -0.000   0.000
   94   89   87   90        3      30.334   0.000 -30.334  -0.000  -0.000   0.000
   95   89   87   90        3       9.079   0.000  -9.079  -0.000  -0.000   0.000
   98   95   89   94        3      14.100   0.000  -9.079  -0.000  -5.021   0.000
   96   94   89   95        3       9.079   0.000  -9.079  -0.000  -0.000   0.000
   97   94   89   95        3       9.079   0.000  -9.079  -0.000  -0.000   0.000
   85   87   90   96        3      30.334   0.000 -30.334  -0.000  -0.000   0.000
   97   94   96   99        3      30.334   0.000 -30.334  -0.000  -0.000   0.000
   87   90   96   99        3      30.334   0.000 -30.334  -0.000  -0.000   0.000
   90   96   99  103        3      30.334   0.000 -30.334  -0.000  -0.000   0.000
  107  104   99  103        3      30.334   0.000 -30.334  -0.000  -0.000   0.000
   90   96   99  104        3      30.334   0.000 -30.334  -0.000  -0.000   0.000
  105  103   99  104        3      30.334   0.000 -30.334  -0.000  -0.000   0.000
  106  103   99  104        3      30.334   0.000 -30.334  -0.000  -0.000   0.000
   99  103  105  107        3      30.334   0.000 -30.334  -0.000  -0.000   0.000
  106  103  105  107        3      30.334   0.000 -30.334  -0.000  -0.000   0.000
   50   47   49   46        3       9.079   0.000  -9.079  -0.000  -0.000   0.000
   45   47   49   46        3      30.334   0.000 -30.334  -0.000  -0.000   0.000
   44   46   49   47        3      30.334   0.000 -30.334  -0.000  -0.000   0.000
   44   45   47   50        3       9.079   0.000  -9.079  -0.000  -0.000   0.000
   48   45   47   50        3       9.079   0.000  -9.079  -0.000  -0.000   0.000
   45   47   50   52        3      14.100   0.000  -9.079  -0.000  -5.021   0.000
   39   42   44   45        3      30.334   0.000 -30.334  -0.000  -0.000   0.000
   40   42   44   45        3      30.334   0.000 -30.334  -0.000  -0.000   0.000
   51   49   47   45        3      30.334   0.000 -30.334  -0.000  -0.000   0.000
   47   45   44   42        3      30.334   0.000 -30.334  -0.000  -0.000   0.000
   48   45   44   42        3      30.334   0.000 -30.334  -0.000  -0.000   0.000
   38   40   42   39        3      30.334   0.000 -30.334  -0.000  -0.000   0.000
   43   40   42   39        3      30.334   0.000 -30.334  -0.000  -0.000   0.000
   37   39   42   40        3      30.334   0.000 -30.334  -0.000  -0.000   0.000
   32   35   37   38        3      30.334   0.000 -30.334  -0.000  -0.000   0.000
   33   35   37   38        3      30.334   0.000 -30.334  -0.000  -0.000   0.000
   44   42   40   38        3      30.334   0.000 -30.334  -0.000  -0.000   0.000
   40   38   37   35        3      30.334   0.000 -30.334  -0.000  -0.000   0.000
   41   38   37   35        3      30.334   0.000 -30.334  -0.000  -0.000   0.000
   31   33   35   32        3      30.334   0.000 -30.334  -0.000  -0.000   0.000
   36   33   35   32        3      30.334   0.000 -30.334  -0.000  -0.000   0.000
   27   32   35   33        3      30.334   0.000 -30.334  -0.000  -0.000   0.000
   18   24   27   31        3      30.334   0.000 -30.334  -0.000  -0.000   0.000
   22   24   27   31        3      30.334   0.000 -30.334  -0.000  -0.000   0.000
   37   35   33   31        3      30.334   0.000 -30.334  -0.000  -0.000   0.000
   33   31   27   24        3      30.334   0.000 -30.334  -0.000  -0.000   0.000
   34   31   27   24        3      30.334   0.000 -30.334  -0.000  -0.000   0.000
   17   22   24   18        3      30.334   0.000 -30.334  -0.000  -0.000   0.000
   25   22   24   18        3      30.334   0.000 -30.334  -0.000  -0.000   0.000
   15   18   24   22        3      30.334   0.000 -30.334  -0.000  -0.000   0.000
   10   13   15   17        3      30.334   0.000 -30.334  -0.000  -0.000   0.000
   11   13   15   17        3      30.334   0.000 -30.334  -0.000  -0.000   0.000
   27   24   22   17        3      30.334   0.000 -30.334  -0.000  -0.000   0.000
   13   15   17   23        3       9.079   0.000  -9.079  -0.000  -0.000   0.000
   24   22   17   23        3       9.079   0.000  -9.079  -0.000  -0.000   0.000
   25   22   17   23        3       9.079   0.000  -9.079  -0.000  -0.000   0.000
   22   17   23   26        3      14.100   0.000  -9.079  -0.000  -5.021   0.000
   22   17   15   13        3      30.334   0.000 -30.334  -0.000  -0.000   0.000
   14   11   13   10        3       9.079   0.000  -9.079  -0.000  -0.000   0.000
    9   11   13   10        3      30.334   0.000 -30.334  -0.000  -0.000   0.000
    8   10   13   11        3      30.334   0.000 -30.334  -0.000  -0.000   0.000
    8    9   11   14        3       9.079   0.000  -9.079  -0.000  -0.000   0.000
   12    9   11   14        3       9.079   0.000  -9.079  -0.000  -0.000   0.000
    9   11   14   16        3      14.100   0.000  -9.079  -0.000  -5.021   0.000
    3    6    8    9        3      30.334   0.000 -30.334  -0.000  -0.000   0.000
    4    6    8    9        3      30.334   0.000 -30.334  -0.000  -0.000   0.000
   15   13   11    9        3      30.334   0.000 -30.334  -0.000  -0.000   0.000
   11    9    8    6        3      30.334   0.000 -30.334  -0.000  -0.000   0.000
   12    9    8    6        3      30.334   0.000 -30.334  -0.000  -0.000   0.000
    2    4    6    3        3      30.334   0.000 -30.334  -0.000  -0.000   0.000
    7    4    6    3        3      30.334   0.000 -30.334  -0.000  -0.000   0.000
    1    3    6    4        3      30.334   0.000 -30.334  -0.000  -0.000   0.000
    8    6    4    2        3      30.334   0.000 -30.334  -0.000  -0.000   0.000
  109    1    2    5        3      30.334   0.000 -30.334  -0.000  -0.000   0.000
    6    4    2    5        3      30.334   0.000 -30.334  -0.000  -0.000   0.000
    7    4    2    5        3      30.334   0.000 -30.334  -0.000  -0.000   0.000
    1    2    4    7        3      30.334   0.000 -30.334  -0.000  -0.000   0.000
   13   11    9   12        3      30.334   0.000 -30.334  -0.000  -0.000   0.000
   15   17   22   25        3      30.334   0.000 -30.334  -0.000  -0.000   0.000
   35   33   31   34        3      30.334   0.000 -30.334  -0.000  -0.000   0.000
   36   33   31   34        3      30.334   0.000 -30.334  -0.000  -0.000   0.000
   27   31   33   36        3      30.334   0.000 -30.334  -0.000  -0.000   0.000
   42   40   38   41        3      30.334   0.000 -30.334  -0.000  -0.000   0.000
   43   40   38   41        3      30.334   0.000 -30.334  -0.000  -0.000   0.000
   37   38   40   43        3      30.334   0.000 -30.334  -0.000  -0.000   0.000
   49   47   45   48        3      30.334   0.000 -30.334  -0.000  -0.000   0.000
   54   60   58   61        3      30.334   0.000 -30.334  -0.000  -0.000   0.000
   72   69   67   70        3      30.334   0.000 -30.334  -0.000  -0.000   0.000
   68   71   69   72        3      30.334   0.000 -30.334  -0.000  -0.000   0.000
   79   76   74   77        3      30.334   0.000 -30.334  -0.000  -0.000   0.000
   75   78   76   79        3      30.334   0.000 -30.334  -0.000  -0.000   0.000
   90   96   94   97        3      30.334   0.000 -30.334  -0.000  -0.000   0.000
  108  105  103  106        3      30.334   0.000 -30.334  -0.000  -0.000   0.000
  104  107  105  108        3      44.978   0.000 -44.978  -0.000  -0.000   0.000
  110  107  105  108        3      30.334   0.000 -30.334  -0.000  -0.000   0.000
    4    2    1  109        3      30.334   0.000 -30.334  -0.000  -0.000   0.000
  103  105  107  110        3      30.334   0.000 -30.334  -0.000  -0.000   0.000
   53   58   60   54        3      30.334   0.000 -30.334  -0.000  -0.000   0.000
   51   54   60   58        3      30.334   0.000 -30.334  -0.000  -0.000   0.000
   67   69   71   68        3      30.334   0.000 -30.334  -0.000  -0.000   0.000
   63   68   71   69        3      30.334   0.000 -30.334  -0.000  -0.000   0.000
   74   76   78   75        3      30.334   0.000 -30.334  -0.000  -0.000   0.000
   73   75   78   76        3      30.334   0.000 -30.334  -0.000  -0.000   0.000
   81   83   85   82        3      30.334   0.000 -30.334  -0.000  -0.000   0.000
   80   82   85   83        3      30.334   0.000 -30.334  -0.000  -0.000   0.000
   89   94   96   90        3      30.334   0.000 -30.334  -0.000  -0.000   0.000
   87   90   96   94        3      30.334   0.000 -30.334  -0.000  -0.000   0.000
   99  104  107  105        3      30.334   0.000 -30.334  -0.000  -0.000   0.000
  103  105  107  104        3      30.334   0.000 -30.334  -0.000  -0.000   0.000
   46   44   45   47        3      30.334   0.000 -30.334  -0.000  -0.000   0.000
   49   47   45   44        3      30.334   0.000 -30.334  -0.000  -0.000   0.000
   39   37   38   40        3      30.334   0.000 -30.334  -0.000  -0.000   0.000
   42   40   38   37        3      30.334   0.000 -30.334  -0.000  -0.000   0.000
   32   27   31   33        3      30.334   0.000 -30.334  -0.000  -0.000   0.000
   35   33   31   27        3      30.334   0.000 -30.334  -0.000  -0.000   0.000
   18   15   17   22        3      30.334   0.000 -30.334  -0.000  -0.000   0.000
   24   22   17   15        3      30.334   0.000 -30.334  -0.000  -0.000   0.000
   10    8    9   11        3      30.334   0.000 -30.334  -0.000  -0.000   0.000
   13   11    9    8        3      30.334   0.000 -30.334  -0.000  -0.000   0.000
    3    1    2    4        3      30.334   0.000 -30.334  -0.000  -0.000   0.000
    6    4    2    1        3      30.334   0.000 -30.334  -0.000  -0.000   0.000
[ dihedrals ]
;IMPROPER DIHEDRAL ANGLES
;  ai    aj   ak   al funct      c0       c1      c2      c3       c4     c5
   49   51   53   54     4     180.000   10.460       2  
   51   49   46   47     4     180.000   10.460       2  
   51   53   58   59     4     180.000   10.460       2  
   53   58   60   61     4     180.000   10.460       2  
   58   60   54   63     4     180.000   10.460       2  
   60   63   67   68     4     180.000   10.460       2  
   63   67   69   70     4     180.000   10.460       2  
   67   69   71   72     4     180.000   10.460       2  
   69   71   68   73     4     180.000   10.460       2  
   71   73   74   75     4     180.000   10.460       2  
   73   74   76   77     4     180.000   10.460       2  
   74   76   78   79     4     180.000   10.460       2  
   76   78   75   80     4     180.000   10.460       2  
   78   80   81   82     4     180.000   10.460       2  
   80   81   83   84     4     180.000   10.460       2  
   81   83   85   86     4     180.000   10.460       2  
   83   85   82   87     4     180.000   10.460       2  
   85   87   89   90     4     180.000   10.460       2  
   87   89   94   95     4     180.000   10.460       2  
   89   94   96   97     4     180.000   10.460       2  
   94   96   90   99     4     180.000   10.460       2  
   96   99  103  104     4     180.000   10.460       2  
   99  103  105  106     4     180.000   10.460       2  
  103  105  107  108     4     180.000   10.460       2  
  104  107  105  110     4     180.000   10.460       2  
   49   47   50   45     4     180.000   10.460       2  
   46   44   45   42     4     180.000   10.460       2  
   44   45   47   48     4     180.000   10.460       2  
   44   42   39   40     4     180.000   10.460       2  
   42   40   38   43     4     180.000   10.460       2  
   39   37   38   35     4     180.000   10.460       2  
   37   38   40   41     4     180.000   10.460       2  
   37   35   32   33     4     180.000   10.460       2  
   35   33   31   36     4     180.000   10.460       2  
   32   27   31   24     4     180.000   10.460       2  
   27   31   33   34     4     180.000   10.460       2  
   27   24   18   22     4     180.000   10.460       2  
   24   22   17   25     4     180.000   10.460       2  
   18   15   17   13     4     180.000   10.460       2  
   15   17   22   23     4     180.000   10.460       2  
   15   13   10   11     4     180.000   10.460       2  
   13   11   14    9     4     180.000   10.460       2  
   10    8    9    6     4     180.000   10.460       2  
    8    9   11   12     4     180.000   10.460       2  
    8    6    3    4     4     180.000   10.460       2  
    6    4    2    7     4     180.000   10.460       2  
    3    1    2  109     4     180.000   10.460       2  
    1    2    4    5     4     180.000   10.460       2  
[ pairs ]
;  ai    aj funct
   51   58    1
   51   60    1
   51   62    1
   51   63    1
   51   50    1
   51   44    1
   51   45    1
   51   61    1
   49   58    1
   49   59    1
   49   60    1
   49   52    1
   49   44    1
   49   45    1
   49   42    1
   49   48    1
   53   54    1
   53   60    1
   53   63    1
   53   46    1
   53   47    1
   53   64    1
   53   65    1
   53   66    1
   54   58    1
   54   59    1
   54   67    1
   54   68    1
   54   46    1
   54   47    1
   54   61    1
   58   62    1
   58   67    1
   58   68    1
   59   60    1
   59   61    1
   60   69    1
   60   71    1
   60   70    1
   63   69    1
   63   71    1
   63   73    1
   63   61    1
   63   72    1
   67   68    1
   67   71    1
   67   73    1
   68   69    1
   68   74    1
   68   75    1
   68   70    1
   68   72    1
   69   74    1
   69   75    1
   71   76    1
   71   78    1
   71   70    1
   71   77    1
   73   76    1
   73   78    1
   73   80    1
   73   72    1
   73   79    1
   74   75    1
   74   78    1
   74   80    1
   75   76    1
   75   81    1
   75   82    1
   75   77    1
   75   79    1
   76   81    1
   76   82    1
   78   83    1
   78   85    1
   78   77    1
   78   84    1
   80   83    1
   80   85    1
   80   86    1
   80   87    1
   80   79    1
   81   82    1
   81   85    1
   81   87    1
   81   88    1
   82   83    1
   82   86    1
   82   89    1
   82   90    1
   82   84    1
   83   89    1
   83   90    1
   83   91    1
   83   92    1
   83   93    1
   85   88    1
   85   94    1
   85   95    1
   85   96    1
   85   84    1
   86   87    1
   86   84    1
   87   94    1
   87   96    1
   87   98    1
   87   99    1
   87   97    1
   89   90    1
   89   96    1
   89   99    1
   89  100    1
   89  101    1
   89  102    1
   90   94    1
   90   95    1
   90  103    1
   90  104    1
   90   97    1
   94   98    1
   94  103    1
   94  104    1
   95   96    1
   95   97    1
   96  105    1
   96  107    1
   96  106    1
   99  105    1
   99  107    1
   99   97    1
   99  108    1
   99  110    1
  103  104    1
  103  107    1
  103  110    1
  104  105    1
  104  106    1
  104  108    1
  107  106    1
   46   47    1
   46   50    1
   46   45    1
   46   39    1
   46   40    1
   46   48    1
   47   44    1
   47   42    1
   47   55    1
   47   56    1
   47   57    1
   50   44    1
   50   48    1
   52   45    1
   44   37    1
   44   38    1
   44   43    1
   45   39    1
   45   40    1
   42   37    1
   42   38    1
   42   35    1
   42   41    1
   42   48    1
   39   40    1
   39   38    1
   39   32    1
   39   33    1
   39   41    1
   39   43    1
   40   37    1
   40   35    1
   37   27    1
   37   31    1
   37   36    1
   37   43    1
   38   32    1
   38   33    1
   35   27    1
   35   31    1
   35   24    1
   35   34    1
   35   41    1
   32   33    1
   32   31    1
   32   18    1
   32   22    1
   32   34    1
   32   36    1
   33   27    1
   33   24    1
   27   15    1
   27   17    1
   27   25    1
   27   36    1
   31   18    1
   31   22    1
   24   15    1
   24   17    1
   24   23    1
   24   13    1
   24   34    1
   18   22    1
   18   17    1
   18   23    1
   18   10    1
   18   11    1
   18   25    1
   22   15    1
   22   26    1
   22   13    1
   15   26    1
   15   14    1
   15    8    1
   15    9    1
   15   25    1
   17   10    1
   17   11    1
   17   28    1
   17   29    1
   17   30    1
   23   13    1
   23   25    1
   13   16    1
   13    8    1
   13    9    1
   13    6    1
   13   12    1
   10   11    1
   10   14    1
   10    9    1
   10    3    1
   10    4    1
   10   12    1
   11    8    1
   11    6    1
   11   19    1
   11   20    1
   11   21    1
   14    8    1
   14   12    1
   16    9    1
    8    1    1
    8    2    1
    8    7    1
    9    3    1
    9    4    1
    6    1    1
    6    2    1
    6    5    1
    6   12    1
    6  109    1
    3    4    1
    3    2    1
    3    5    1
    3    7    1
    4    1    1
    4  109    1
    1    7    1
    5    7    1
    5  109    1
   34   36    1
   41   43    1
   70   72    1
   77   79    1
  106  108    1
  108  110    1
[ dihedral_restraints ]
;   ai    aj    ak    al  type   phi    dphi kfac
   47    49    51    53     1    0.0     0  9000
    4     6     8     9     1  156.3     0  9000
   11    13    15    17     1  179.2     0  9000
   22    24    27    31     1  159.9     0  9000
   33    35    37    38     1  162.9     0  9000
   40    42    44    45     1  160.0     0  9000
   67    63    60    58     1  160.0     0  9000
   74    73    71    69     1  162.9     0  9000
   81    80    78    76     1  159.9     0  9000
   89    87    85    83     1  179.2     0  9000
  103    99    96    94     1  156.3     0  9000
; Include Position restraint file
#ifdef POSRES
#include "posre.itp"
#endif
