Auto Generated from Opt.log
  110
    0         C    1  -2.276  -0.040   0.048
    0         C    2  -2.233  -0.058  -0.081
    0         S    3  -2.145  -0.005   0.155
    0         C    4  -2.092  -0.043  -0.095
    0         H    5  -2.300  -0.081  -0.164
    0         C    6  -2.029  -0.013   0.024
    0         H    7  -2.039  -0.051  -0.190
    0         C    8  -1.887   0.010   0.049
    0         C    9  -1.829   0.082   0.153
    0         S   10  -1.767  -0.057  -0.058
    0         C   11  -1.687   0.083   0.144
    0         H   12  -1.886   0.133   0.229
    0         C   13  -1.635   0.013   0.034
    0         O   14  -1.600   0.145   0.229
    0         C   15  -1.497  -0.004  -0.003
    0         C   16  -1.657   0.214   0.340
    0         C   17  -1.446  -0.075  -0.111
    0         S   18  -1.365   0.067   0.089
    0         H   19  -1.723   0.296   0.306
    0         H   20  -1.715   0.146   0.404
    0         H   21  -1.573   0.255   0.396
    0         C   22  -1.304  -0.071  -0.122
    0         O   23  -1.532  -0.138  -0.196
    0         C   24  -1.245   0.003  -0.020
    0         H   25  -1.247  -0.118  -0.201
    0         C   26  -1.475  -0.209  -0.305
    0         C   27  -1.105   0.030   0.002
    0         H   28  -1.419  -0.142  -0.372
    0         H   29  -1.408  -0.290  -0.269
    0         H   30  -1.559  -0.254  -0.359
    0         C   31  -1.046   0.130   0.076
    0         S   32  -0.982  -0.073  -0.069
    0         C   33  -0.904   0.125   0.077
    0         H   34  -1.103   0.207   0.128
    0         C   35  -0.852   0.020   0.002
    0         H   36  -0.840   0.195   0.131
    0         C   37  -0.714  -0.016  -0.022
    0         C   38  -0.661  -0.135  -0.069
    0         S   39  -0.585   0.099   0.009
    0         C   40  -0.520  -0.134  -0.081
    0         H   41  -0.724  -0.221  -0.094
    0         C   42  -0.462  -0.015  -0.042
    0         H   43  -0.462  -0.219  -0.118
    0         C   44  -0.322   0.022  -0.040
    0         C   45  -0.267   0.149  -0.038
    0         S   46  -0.199  -0.101  -0.038
    0         C   47  -0.124   0.147  -0.037
    0         H   48  -0.327   0.240  -0.041
    0         C   49  -0.070   0.018  -0.038
    0         O   50  -0.041   0.254  -0.036
    0         C   51   0.070  -0.018  -0.038
    0         C   52  -0.102   0.383  -0.035
    0         C   53   0.124  -0.147  -0.037
    0         S   54   0.199   0.101  -0.038
    0         H   55  -0.163   0.399  -0.126
    0         H   56  -0.165   0.397   0.055
    0         H   57  -0.019   0.455  -0.033
    0         C   58   0.267  -0.149  -0.038
    0         O   59   0.041  -0.254  -0.036
    0         C   60   0.322  -0.022  -0.040
    0         H   61   0.327  -0.240  -0.041
    0         C   62   0.102  -0.383  -0.035
    0         C   63   0.462   0.015  -0.042
    0         H   64   0.163  -0.399  -0.126
    0         H   65   0.165  -0.397   0.055
    0         H   66   0.019  -0.455  -0.033
    0         C   67   0.520   0.134  -0.081
    0         S   68   0.585  -0.099   0.009
    0         C   69   0.661   0.135  -0.069
    0         H   70   0.462   0.219  -0.118
    0         C   71   0.714   0.016  -0.022
    0         H   72   0.724   0.221  -0.094
    0         C   73   0.852  -0.020   0.002
    0         C   74   0.904  -0.125   0.077
    0         S   75   0.982   0.073  -0.069
    0         C   76   1.046  -0.130   0.076
    0         H   77   0.840  -0.195   0.131
    0         C   78   1.105  -0.030   0.002
    0         H   79   1.103  -0.207   0.128
    0         C   80   1.245  -0.003  -0.020
    0         C   81   1.304   0.071  -0.122
    0         S   82   1.365  -0.067   0.089
    0         C   83   1.446   0.075  -0.111
    0         H   84   1.247   0.118  -0.201
    0         C   85   1.497   0.004  -0.003
    0         O   86   1.532   0.138  -0.196
    0         C   87   1.635  -0.013   0.034
    0         C   88   1.475   0.209  -0.305
    0         C   89   1.687  -0.083   0.144
    0         S   90   1.767   0.057  -0.058
    0         H   91   1.419   0.142  -0.372
    0         H   92   1.408   0.290  -0.269
    0         H   93   1.559   0.254  -0.359
    0         C   94   1.829  -0.082   0.153
    0         O   95   1.600  -0.145   0.229
    0         C   96   1.887  -0.010   0.049
    0         H   97   1.886  -0.133   0.229
    0         C   98   1.657  -0.214   0.340
    0         C   99   2.029   0.013   0.024
    0         H  100   1.723  -0.296   0.306
    0         H  101   1.715  -0.146   0.404
    0         H  102   1.573  -0.255   0.396
    0         C  103   2.092   0.043  -0.095
    0         S  104   2.145   0.005   0.155
    0         C  105   2.233   0.058  -0.081
    0         H  106   2.039   0.051  -0.190
    0         C  107   2.276   0.040   0.048
    0         H  108   2.300   0.081  -0.164
    0         H  109  -2.378  -0.045   0.087
    0         H  110   2.378   0.045   0.087
   0.00000   0.00000   0.00000
